 vasp.6.3.0 20Jan22 (build May 12 2022 16:34:25) complex                        
  
 executed on GNU/Linux-IFC-IntelM date 2022.11.16  04:24:24
 running 2912 mpi-ranks, with    1 threads/rank
 distrk:  each k-point on 1456 cores,    2 groups
 distr:  one band on NCORE=  56 cores,   26 groups


--------------------------------------------------------------------------------------------------------


 INCAR:
   SYSTEM = BN/gr
   ISTART = 1
   NCORE = 56
   KPAR = 2
   ENCUT = 400
   PREC = Accurate
   EDIFF = 1E-8
   ISMEAR = 0
   SIGMA = 0.05
   NELMIN = 2
   NELM = 100
   NBANDS = 1072
   LCHARG = .F.
   LWAVE = .F.
   IVDW = 11
   ALGO = Normal
   LOPTICS = .T.
   CSHIFT = 0.100
   NEDOS = 2000

 POTCAR:    PAW_PBE N 08Apr2002                   
 POTCAR:    PAW_PBE B 06Sep2000                   
 POTCAR:    PAW_PBE C 08Apr2002                   
 POTCAR:    PAW_PBE N 08Apr2002                   
   VRHFIN =N: s2p3                                                                                  
   LEXCH  = PE                                                                                      
   EATOM  =   264.5486 eV,   19.4438 Ry                                                             
                                                                                                    
   TITEL  = PAW_PBE N 08Apr2002                                                                     
   LULTRA =        F    use ultrasoft PP ?                                                          
   IUNSCR =        1    unscreen: 0-lin 1-nonlin 2-no                                               
   RPACOR =    1.200    partial core radius                                                         
   POMASS =   14.001; ZVAL   =    5.000    mass and valenz                                          
   RCORE  =    1.500    outmost cutoff radius                                                       
   RWIGS  =    1.400; RWIGS  =    0.741    wigner-seitz radius (au A)                               
   ENMAX  =  400.000; ENMIN  =  300.000 eV                                                          
   ICORE  =        2    local potential                                                             
   LCOR   =        T    correct aug charges                                                         
   LPAW   =        T    paw PP                                                                      
   EAUG   =  627.112                                                                                
   DEXC   =    0.000                                                                                
   RMAX   =    1.529    core radius for proj-oper                                                   
   RAUG   =    1.300    factor for augmentation sphere                                              
   RDEP   =    1.514    radius for radial grids                                                     
   RDEPT  =    1.338    core radius for aug-charge                                                  
                                                                                                    
   Atomic configuration                                                                             
    4 entries                                                                                       
     n  l   j            E        occ.                                                              
     1  0  0.50      -384.7179   2.0000                                                             
     2  0  0.50       -18.5828   2.0000                                                             
     2  1  0.50        -7.0898   3.0000                                                             
     3  2  1.50        -6.8029   0.0000                                                             
   Description                                                                                      
     l       E           TYP  RCUT    TYP  RCUT                                                     
     0    -18.5828119     23  1.200                                                                 
     0    -13.5018863     23  1.200                                                                 
     1     -7.0897853     23  1.500                                                                 
     1      9.5240782     23  1.500                                                                 
     2     -6.8029130      7  1.500                                                                 
  local pseudopotential read in
  partial core-charges read in
  partial kinetic energy density read in
  atomic valenz-charges read in
  non local Contribution for L=           0  read in
    real space projection operators read in
  non local Contribution for L=           0  read in
    real space projection operators read in
  non local Contribution for L=           1  read in
    real space projection operators read in
  non local Contribution for L=           1  read in
    real space projection operators read in
    PAW grid and wavefunctions read in
 
   number of l-projection  operators is LMAX  =           4
   number of lm-projection operators is LMMAX =           8
 
 POTCAR:    PAW_PBE B 06Sep2000                   
   VRHFIN =B: s2p1                                                                                  
   LEXCH  = PE                                                                                      
   EATOM  =    71.1703 eV,    5.2309 Ry                                                             
                                                                                                    
   TITEL  = PAW_PBE B 06Sep2000                                                                     
   LULTRA =        F    use ultrasoft PP ?                                                          
   IUNSCR =        1    unscreen: 0-lin 1-nonlin 2-no                                               
   RPACOR =    1.200    partial core radius                                                         
   POMASS =   10.811; ZVAL   =    3.000    mass and valenz                                          
   RCORE  =    1.700    outmost cutoff radius                                                       
   RWIGS  =    1.710; RWIGS  =    0.905    wigner-seitz radius (au A)                               
   ENMAX  =  318.614; ENMIN  =  238.960 eV                                                          
   ICORE  =        2    local potential                                                             
   LCOR   =        T    correct aug charges                                                         
   LPAW   =        T    paw PP                                                                      
   EAUG   =  535.514                                                                                
   DEXC   =    0.000                                                                                
   RMAX   =    1.732    core radius for proj-oper                                                   
   RAUG   =    1.300    factor for augmentation sphere                                              
   RDEP   =    1.757    radius for radial grids                                                     
   RDEPT  =    1.436    core radius for aug-charge                                                  
                                                                                                    
   Atomic configuration                                                                             
    4 entries                                                                                       
     n  l   j            E        occ.                                                              
     1  0  0.50      -180.5896   2.0000                                                             
     2  0  0.50        -9.4431   2.0000                                                             
     2  1  0.50        -3.6068   1.0000                                                             
     3  2  1.50        -4.0817   0.0000                                                             
   Description                                                                                      
     l       E           TYP  RCUT    TYP  RCUT                                                     
     0     -9.4430752     23  1.500                                                                 
     0      0.8675899     23  1.500                                                                 
     1     -3.6067955     23  1.700                                                                 
     1      6.1086146     23  1.700                                                                 
     2     -4.0817478      7  1.700                                                                 
  local pseudopotential read in
  partial core-charges read in
  partial kinetic energy density read in
  atomic valenz-charges read in
  non local Contribution for L=           0  read in
    real space projection operators read in
  non local Contribution for L=           0  read in
    real space projection operators read in
  non local Contribution for L=           1  read in
    real space projection operators read in
  non local Contribution for L=           1  read in
    real space projection operators read in
    PAW grid and wavefunctions read in
 
   number of l-projection  operators is LMAX  =           4
   number of lm-projection operators is LMMAX =           8
 
 POTCAR:    PAW_PBE C 08Apr2002                   
   VRHFIN =C: s2p2                                                                                  
   LEXCH  = PE                                                                                      
   EATOM  =   147.1560 eV,   10.8157 Ry                                                             
                                                                                                    
   TITEL  = PAW_PBE C 08Apr2002                                                                     
   LULTRA =        F    use ultrasoft PP ?                                                          
   IUNSCR =        1    unscreen: 0-lin 1-nonlin 2-no                                               
   RPACOR =    1.200    partial core radius                                                         
   POMASS =   12.011; ZVAL   =    4.000    mass and valenz                                          
   RCORE  =    1.500    outmost cutoff radius                                                       
   RWIGS  =    1.630; RWIGS  =    0.863    wigner-seitz radius (au A)                               
   ENMAX  =  400.000; ENMIN  =  300.000 eV                                                          
   ICORE  =        2    local potential                                                             
   LCOR   =        T    correct aug charges                                                         
   LPAW   =        T    paw PP                                                                      
   EAUG   =  644.873                                                                                
   DEXC   =    0.000                                                                                
   RMAX   =    1.529    core radius for proj-oper                                                   
   RAUG   =    1.300    factor for augmentation sphere                                              
   RDEP   =    1.501    radius for radial grids                                                     
   RDEPT  =    1.300    core radius for aug-charge                                                  
                                                                                                    
   Atomic configuration                                                                             
    4 entries                                                                                       
     n  l   j            E        occ.                                                              
     1  0  0.50      -273.3789   2.0000                                                             
     2  0  0.50       -13.7508   2.0000                                                             
     2  1  0.50        -5.2854   2.0000                                                             
     3  2  1.50        -5.4423   0.0000                                                             
   Description                                                                                      
     l       E           TYP  RCUT    TYP  RCUT                                                     
     0    -13.7508458     23  1.200                                                                 
     0     -8.2022199     23  1.200                                                                 
     1     -5.2854383     23  1.500                                                                 
     1     34.0145650     23  1.500                                                                 
     2     -5.4423304      7  1.500                                                                 
  local pseudopotential read in
  partial core-charges read in
  partial kinetic energy density read in
  atomic valenz-charges read in
  non local Contribution for L=           0  read in
    real space projection operators read in
  non local Contribution for L=           0  read in
    real space projection operators read in
  non local Contribution for L=           1  read in
    real space projection operators read in
  non local Contribution for L=           1  read in
    real space projection operators read in
    PAW grid and wavefunctions read in
 
   number of l-projection  operators is LMAX  =           4
   number of lm-projection operators is LMMAX =           8
 
 -----------------------------------------------------------------------------
|                                                                             |
|               ----> ADVICE to this user running VASP <----                  |
|                                                                             |
|     You have a (more or less) 'large supercell' and for larger cells it     |
|     might be more efficient to use real-space projection operators.         |
|     Therefore, try LREAL= Auto in the INCAR file.                           |
|     Mind: For very accurate calculation, you might also keep the            |
|     reciprocal projection scheme (i.e. LREAL=.FALSE.).                      |
|                                                                             |
 -----------------------------------------------------------------------------

  PAW_PBE N 08Apr2002                   :
 energy of atom  1       EATOM= -264.5486
 kinetic energy error for atom=    0.0736 (will be added to EATOM!!)
  PAW_PBE B 06Sep2000                   :
 energy of atom  2       EATOM=  -71.1703
 kinetic energy error for atom=    0.0020 (will be added to EATOM!!)
  PAW_PBE C 08Apr2002                   :
 energy of atom  3       EATOM= -147.1560
 kinetic energy error for atom=    0.0288 (will be added to EATOM!!)
 
 
 POSCAR: B67 C134 N67
  positions in direct lattice
  velocities in cartesian coordinates
 exchange correlation table for  LEXCH =        8
   RHO(1)=    0.500       N(1)  =     2000
   RHO(2)=  100.500       N(2)  =     4000
 


--------------------------------------------------------------------------------------------------------


 ion  position               nearest neighbor table
   1  0.095  0.592  0.500-  68 1.42 134 1.42  76 1.42
   2  0.124  0.726  0.500-  77 1.42  68 1.42  69 1.42
   3  0.154  0.861  0.500-  69 1.42  70 1.42  78 1.42
   4  0.184  0.995  0.500-  70 1.42  71 1.42  79 1.42
   5  0.080  0.025  0.500-  72 1.42  71 1.42 130 1.42
   6  0.109  0.159  0.500-  73 1.42  80 1.42  72 1.42
   7  0.139  0.294  0.500-  81 1.42  73 1.42  74 1.42
   8  0.169  0.428  0.500-  74 1.42  75 1.42  82 1.42
   9  0.199  0.562  0.500-  83 1.42  75 1.42  76 1.42
  10  0.229  0.697  0.500-  76 1.42  84 1.42  77 1.42
  11  0.259  0.831  0.500-  78 1.42  85 1.42  77 1.42
  12  0.289  0.965  0.500-  79 1.42  78 1.42  86 1.42
  13  0.214  0.129  0.500-  71 1.42  87 1.42  80 1.42
  14  0.244  0.264  0.500-  81 1.42  88 1.42  80 1.42
  15  0.274  0.398  0.500-  82 1.42  89 1.42  81 1.42
  16  0.303  0.532  0.500-  90 1.42  83 1.42  82 1.42
  17  0.333  0.667  0.500-  84 1.42  83 1.42  91 1.42
  18  0.363  0.801  0.500-  84 1.42  85 1.42  92 1.42
  19  0.393  0.935  0.500-  85 1.42  93 1.42  86 1.42
  20  0.318  0.100  0.500-  94 1.42  87 1.42  79 1.42
  21  0.348  0.234  0.500-  87 1.42  88 1.42  95 1.42
  22  0.378  0.368  0.500-  96 1.42  88 1.42  89 1.42
  23  0.408  0.502  0.500-  89 1.42  97 1.42  90 1.42
  24  0.438  0.637  0.500-  91 1.42  98 1.42  90 1.42
  25  0.468  0.771  0.500-  92 1.42  91 1.42  99 1.42
  26  0.498  0.905  0.500- 100 1.42  93 1.42  92 1.42
  27  0.423  0.070  0.500-  86 1.42  94 1.42 102 1.42
  28  0.453  0.204  0.500-  95 1.42 103 1.42  94 1.42
  29  0.483  0.338  0.500- 104 1.42  96 1.42  95 1.42
  30  0.512  0.473  0.500- 105 1.42  97 1.42  96 1.42
  31  0.542  0.607  0.500-  98 1.42  97 1.42 106 1.42
  32  0.572  0.741  0.500- 107 1.42  98 1.42  99 1.42
  33  0.602  0.876  0.500-  99 1.42 100 1.42 108 1.42
  34  0.632  0.010  0.500- 101 1.42 109 1.42 100 1.42
  35  0.527  0.040  0.500- 102 1.42  93 1.42 101 1.42
  36  0.557  0.174  0.500- 102 1.42 110 1.42 103 1.42
  37  0.587  0.308  0.500- 103 1.42 111 1.42 104 1.42
  38  0.617  0.443  0.500- 105 1.42 104 1.42 112 1.42
  39  0.647  0.577  0.500- 106 1.42 113 1.42 105 1.42
  40  0.677  0.711  0.500- 114 1.42 107 1.42 106 1.42
  41  0.706  0.846  0.500- 108 1.42 115 1.42 107 1.42
  42  0.736  0.980  0.500- 109 1.42 108 1.42 116 1.42
  43  0.662  0.144  0.500- 110 1.42 101 1.42 117 1.42
  44  0.692  0.279  0.500- 118 1.42 111 1.42 110 1.42
  45  0.721  0.413  0.500- 112 1.42 111 1.42 119 1.42
  46  0.751  0.547  0.500- 120 1.42 112 1.42 113 1.42
  47  0.781  0.682  0.500- 113 1.42 121 1.42 114 1.42
  48  0.811  0.816  0.500- 115 1.42 122 1.42 114 1.42
  49  0.841  0.950  0.500- 115 1.42 116 1.42 123 1.42
  50  0.766  0.114  0.500- 124 1.42 109 1.42 117 1.42
  51  0.796  0.249  0.500- 117 1.42 118 1.42 125 1.42
  52  0.826  0.383  0.500- 126 1.42 119 1.42 118 1.42
  53  0.856  0.517  0.500- 127 1.42 119 1.42 120 1.42
  54  0.886  0.652  0.500- 121 1.42 128 1.42 120 1.42
  55  0.915  0.786  0.500- 122 1.42 121 1.42 129 1.42
  56  0.945  0.920  0.500- 130 1.42 122 1.42 123 1.42
  57  0.871  0.085  0.500- 131 1.42 124 1.42 116 1.42
  58  0.900  0.219  0.500- 125 1.42 124 1.42 132 1.42
  59  0.930  0.353  0.500- 133 1.42 125 1.42 126 1.42
  60  0.960  0.488  0.500- 126 1.42 134 1.42 127 1.42
  61  0.990  0.622  0.500- 127 1.42 128 1.42  68 1.42
  62  0.020  0.756  0.500-  69 1.42 128 1.42 129 1.42
  63  0.050  0.891  0.500-  70 1.42 129 1.42 130 1.42
  64  0.975  0.055  0.500- 123 1.42 131 1.42  72 1.42
  65  0.005  0.189  0.500-  73 1.42 132 1.42 131 1.42
  66  0.035  0.323  0.500- 132 1.42  74 1.42 133 1.42
  67  0.065  0.458  0.500-  75 1.42 134 1.42 133 1.42
  68  0.070  0.647  0.500-   1 1.42   2 1.42  61 1.42
  69  0.100  0.781  0.500-   3 1.42  62 1.42   2 1.42
  70  0.129  0.915  0.500-  63 1.42   4 1.42   3 1.42
  71  0.159  0.050  0.500-  13 1.42   5 1.42   4 1.42
  72  0.055  0.080  0.500-   5 1.42   6 1.42  64 1.42
  73  0.085  0.214  0.500-   6 1.42  65 1.42   7 1.42
  74  0.114  0.348  0.500-   8 1.42  66 1.42   7 1.42
  75  0.144  0.483  0.500-  67 1.42   8 1.42   9 1.42
  76  0.174  0.617  0.500-  10 1.42   9 1.42   1 1.42
  77  0.204  0.751  0.500-   2 1.42  10 1.42  11 1.42
  78  0.234  0.886  0.500-  11 1.42  12 1.42   3 1.42
  79  0.264  0.020  0.500-  12 1.42   4 1.42  20 1.42
  80  0.189  0.184  0.500-   6 1.42  14 1.42  13 1.42
  81  0.219  0.318  0.500-   7 1.42  14 1.42  15 1.42
  82  0.249  0.453  0.500-  15 1.42  16 1.42   8 1.42
  83  0.279  0.587  0.500-   9 1.42  17 1.42  16 1.42
  84  0.308  0.721  0.500-  18 1.42  17 1.42  10 1.42
  85  0.338  0.856  0.500-  19 1.42  11 1.42  18 1.42
  86  0.368  0.990  0.500-  27 1.42  12 1.42  19 1.42
  87  0.294  0.154  0.500-  21 1.42  13 1.42  20 1.42
  88  0.323  0.289  0.500-  21 1.42  22 1.42  14 1.42
  89  0.353  0.423  0.500-  23 1.42  15 1.42  22 1.42
  90  0.383  0.557  0.500-  16 1.42  24 1.42  23 1.42
  91  0.413  0.692  0.500-  24 1.42  17 1.42  25 1.42
  92  0.443  0.826  0.500-  25 1.42  18 1.42  26 1.42
  93  0.473  0.960  0.500-  19 1.42  35 1.42  26 1.42
  94  0.398  0.124  0.500-  20 1.42  27 1.42  28 1.42
  95  0.428  0.259  0.500-  28 1.42  29 1.42  21 1.42
  96  0.458  0.393  0.500-  22 1.42  29 1.42  30 1.42
  97  0.488  0.527  0.500-  31 1.42  30 1.42  23 1.42
  98  0.517  0.662  0.500-  31 1.42  32 1.42  24 1.42
  99  0.547  0.796  0.500-  33 1.42  25 1.42  32 1.42
 100  0.577  0.930  0.500-  26 1.42  33 1.42  34 1.42
 101  0.607  0.065  0.500-  34 1.42  43 1.42  35 1.42
 102  0.502  0.095  0.500-  35 1.42  36 1.42  27 1.42
 103  0.532  0.229  0.500-  37 1.42  28 1.42  36 1.42
 104  0.562  0.363  0.500-  29 1.42  38 1.42  37 1.42
 105  0.592  0.498  0.500-  30 1.42  38 1.42  39 1.42
 106  0.622  0.632  0.500-  39 1.42  40 1.42  31 1.42
 107  0.652  0.766  0.500-  32 1.42  40 1.42  41 1.42
 108  0.682  0.900  0.500-  41 1.42  42 1.42  33 1.42
 109  0.711  0.035  0.500-  50 1.42  42 1.42  34 1.42
 110  0.637  0.199  0.500-  43 1.42  36 1.42  44 1.42
 111  0.667  0.333  0.500-  44 1.42  45 1.42  37 1.42
 112  0.697  0.468  0.500-  45 1.42  46 1.42  38 1.42
 113  0.726  0.602  0.500-  47 1.42  39 1.42  46 1.42
 114  0.756  0.736  0.500-  40 1.42  48 1.42  47 1.42
 115  0.786  0.871  0.500-  49 1.42  48 1.42  41 1.42
 116  0.816  0.005  0.500-  49 1.42  42 1.42  57 1.42
 117  0.741  0.169  0.500-  51 1.42  43 1.42  50 1.42
 118  0.771  0.303  0.500-  44 1.42  51 1.42  52 1.42
 119  0.801  0.438  0.500-  53 1.42  52 1.42  45 1.42
 120  0.831  0.572  0.500-  46 1.42  53 1.42  54 1.42
 121  0.861  0.706  0.500-  54 1.42  55 1.42  47 1.42
 122  0.891  0.841  0.500-  55 1.42  56 1.42  48 1.42
 123  0.920  0.975  0.500-  64 1.42  49 1.42  56 1.42
 124  0.846  0.139  0.500-  50 1.42  57 1.42  58 1.42
 125  0.876  0.274  0.500-  58 1.42  59 1.42  51 1.42
 126  0.905  0.408  0.500-  60 1.42  52 1.42  59 1.42
 127  0.935  0.542  0.500-  61 1.42  53 1.42  60 1.42
 128  0.965  0.677  0.500-  54 1.42  62 1.42  61 1.42
 129  0.995  0.811  0.500-  63 1.42  62 1.42  55 1.42
 130  0.025  0.945  0.500-  56 1.42  63 1.42   5 1.42
 131  0.950  0.109  0.500-  57 1.42  64 1.42  65 1.42
 132  0.980  0.244  0.500-  66 1.42  65 1.42  58 1.42
 133  0.010  0.378  0.500-  59 1.42  66 1.42  67 1.42
 134  0.040  0.512  0.500-  67 1.42  60 1.42   1 1.42
 135  0.030  0.896  0.333- 246 1.42 224 1.42 202 1.42
 136  0.060  0.791  0.333- 202 1.42 203 1.42 252 1.42
 137  0.164  0.925  0.333- 202 1.42 204 1.42 232 1.42
 138  0.090  0.687  0.333- 257 1.42 205 1.42 203 1.42
 139  0.194  0.821  0.333- 203 1.42 204 1.42 206 1.42
 140  0.299  0.955  0.333- 207 1.42 204 1.42 240 1.42
 141  0.015  0.448  0.333- 261 1.42 262 1.42 208 1.42
 142  0.119  0.582  0.333- 209 1.42 205 1.42 262 1.42
 143  0.224  0.716  0.333- 206 1.42 205 1.42 210 1.42
 144  0.328  0.851  0.333- 211 1.42 207 1.42 206 1.42
 145  0.433  0.985  0.333- 247 1.42 212 1.42 207 1.42
 146  0.045  0.343  0.333- 208 1.42 213 1.42 265 1.42
 147  0.149  0.478  0.333- 209 1.42 208 1.42 214 1.42
 148  0.254  0.612  0.333- 210 1.42 215 1.42 209 1.42
 149  0.358  0.746  0.333- 216 1.42 210 1.42 211 1.42
 150  0.463  0.881  0.333- 211 1.42 217 1.42 212 1.42
 151  0.075  0.239  0.333- 218 1.42 213 1.42 267 1.42
 152  0.179  0.373  0.333- 219 1.42 213 1.42 214 1.42
 153  0.284  0.507  0.333- 214 1.42 220 1.42 215 1.42
 154  0.388  0.642  0.333- 215 1.42 216 1.42 221 1.42
 155  0.493  0.776  0.333- 222 1.42 217 1.42 216 1.42
 156  0.597  0.910  0.333- 258 1.42 217 1.42 223 1.42
 157  0.000  0.000  0.333- 268 1.42 239 1.42 224 1.42
 158  0.104  0.134  0.333- 225 1.42 268 1.42 218 1.42
 159  0.209  0.269  0.333- 218 1.42 219 1.42 226 1.42
 160  0.313  0.403  0.333- 227 1.42 220 1.42 219 1.42
 161  0.418  0.537  0.333- 221 1.42 220 1.42 228 1.42
 162  0.522  0.672  0.333- 221 1.42 229 1.42 222 1.42
 163  0.627  0.806  0.333- 223 1.42 230 1.42 222 1.42
 164  0.731  0.940  0.333- 231 1.42 223 1.42 263 1.42
 165  0.134  0.030  0.333- 232 1.42 225 1.42 224 1.42
 166  0.239  0.164  0.333- 226 1.42 233 1.42 225 1.42
 167  0.343  0.299  0.333- 226 1.42 234 1.42 227 1.42
 168  0.448  0.433  0.333- 227 1.42 228 1.42 235 1.42
 169  0.552  0.567  0.333- 236 1.42 228 1.42 229 1.42
 170  0.657  0.701  0.333- 229 1.42 230 1.42 237 1.42
 171  0.761  0.836  0.333- 231 1.42 230 1.42 238 1.42
 172  0.866  0.970  0.333- 266 1.42 239 1.42 231 1.42
 173  0.269  0.060  0.333- 232 1.42 240 1.42 233 1.42
 174  0.373  0.194  0.333- 241 1.42 233 1.42 234 1.42
 175  0.478  0.328  0.333- 234 1.42 242 1.42 235 1.42
 176  0.582  0.463  0.333- 236 1.42 235 1.42 243 1.42
 177  0.687  0.597  0.333- 244 1.42 237 1.42 236 1.42
 178  0.791  0.731  0.333- 238 1.42 237 1.42 245 1.42
 179  0.896  0.866  0.333- 238 1.42 246 1.42 239 1.42
 180  0.403  0.090  0.333- 241 1.42 240 1.42 247 1.42
 181  0.507  0.224  0.333- 248 1.42 242 1.42 241 1.42
 182  0.612  0.358  0.333- 243 1.42 249 1.42 242 1.42
 183  0.716  0.493  0.333- 243 1.42 250 1.42 244 1.42
 184  0.821  0.627  0.333- 244 1.42 245 1.42 251 1.42
 185  0.925  0.761  0.333- 252 1.42 245 1.42 246 1.42
 186  0.537  0.119  0.333- 247 1.42 253 1.42 248 1.42
 187  0.642  0.254  0.333- 248 1.42 249 1.42 254 1.42
 188  0.746  0.388  0.333- 255 1.42 249 1.42 250 1.42
 189  0.851  0.522  0.333- 251 1.42 250 1.42 256 1.42
 190  0.955  0.657  0.333- 252 1.42 251 1.42 257 1.42
 191  0.567  0.015  0.333- 258 1.42 212 1.42 253 1.42
 192  0.672  0.149  0.333- 259 1.42 254 1.42 253 1.42
 193  0.776  0.284  0.333- 255 1.42 254 1.42 260 1.42
 194  0.881  0.418  0.333- 261 1.42 256 1.42 255 1.42
 195  0.985  0.552  0.333- 257 1.42 262 1.42 256 1.42
 196  0.701  0.045  0.333- 263 1.42 259 1.42 258 1.42
 197  0.806  0.179  0.333- 260 1.42 264 1.42 259 1.42
 198  0.910  0.313  0.333- 260 1.42 265 1.42 261 1.42
 199  0.836  0.075  0.333- 263 1.42 264 1.42 266 1.42
 200  0.940  0.209  0.333- 267 1.42 265 1.42 264 1.42
 201  0.970  0.104  0.333- 267 1.42 266 1.42 268 1.42
 202  0.085  0.871  0.333- 136 1.42 137 1.42 135 1.42
 203  0.114  0.766  0.333- 136 1.42 139 1.42 138 1.42
 204  0.219  0.900  0.333- 137 1.42 140 1.42 139 1.42
 205  0.144  0.662  0.333- 143 1.42 138 1.42 142 1.42
 206  0.249  0.796  0.333- 143 1.42 144 1.42 139 1.42
 207  0.353  0.930  0.333- 140 1.42 144 1.42 145 1.42
 208  0.070  0.423  0.333- 146 1.42 147 1.42 141 1.42
 209  0.174  0.557  0.333- 142 1.42 147 1.42 148 1.42
 210  0.279  0.692  0.333- 148 1.42 149 1.42 143 1.42
 211  0.383  0.826  0.333- 150 1.42 144 1.42 149 1.42
 212  0.488  0.960  0.333- 145 1.42 191 1.42 150 1.42
 213  0.100  0.318  0.333- 151 1.42 146 1.42 152 1.42
 214  0.204  0.453  0.333- 153 1.42 147 1.42 152 1.42
 215  0.308  0.587  0.333- 154 1.42 148 1.42 153 1.42
 216  0.413  0.721  0.333- 149 1.42 154 1.42 155 1.42
 217  0.517  0.856  0.333- 155 1.42 156 1.42 150 1.42
 218  0.129  0.214  0.333- 159 1.42 151 1.42 158 1.42
 219  0.234  0.348  0.333- 159 1.42 152 1.42 160 1.42
 220  0.338  0.483  0.333- 153 1.42 160 1.42 161 1.42
 221  0.443  0.617  0.333- 161 1.42 162 1.42 154 1.42
 222  0.547  0.751  0.333- 155 1.42 162 1.42 163 1.42
 223  0.652  0.886  0.333- 164 1.42 163 1.42 156 1.42
 224  0.055  0.975  0.333- 135 1.42 157 1.42 165 1.42
 225  0.159  0.109  0.333- 158 1.42 165 1.42 166 1.42
 226  0.264  0.244  0.333- 166 1.42 167 1.42 159 1.42
 227  0.368  0.378  0.333- 160 1.42 168 1.42 167 1.42
 228  0.473  0.512  0.333- 169 1.42 168 1.42 161 1.42
 229  0.577  0.647  0.333- 170 1.42 162 1.42 169 1.42
 230  0.682  0.781  0.333- 171 1.42 170 1.42 163 1.42
 231  0.786  0.915  0.333- 164 1.42 171 1.42 172 1.42
 232  0.189  0.005  0.333- 173 1.42 165 1.42 137 1.42
 233  0.294  0.139  0.333- 166 1.42 174 1.42 173 1.42
 234  0.398  0.274  0.333- 175 1.42 167 1.42 174 1.42
 235  0.502  0.408  0.333- 176 1.42 175 1.42 168 1.42
 236  0.607  0.542  0.333- 169 1.42 176 1.42 177 1.42
 237  0.711  0.677  0.333- 177 1.42 178 1.42 170 1.42
 238  0.816  0.811  0.333- 178 1.42 179 1.42 171 1.42
 239  0.920  0.945  0.333- 172 1.42 157 1.42 179 1.42
 240  0.323  0.035  0.333- 180 1.42 173 1.42 140 1.42
 241  0.428  0.169  0.333- 180 1.42 174 1.42 181 1.42
 242  0.532  0.303  0.333- 175 1.42 181 1.42 182 1.42
 243  0.637  0.438  0.333- 182 1.42 183 1.42 176 1.42
 244  0.741  0.572  0.333- 177 1.42 184 1.42 183 1.42
 245  0.846  0.706  0.333- 185 1.42 184 1.42 178 1.42
 246  0.950  0.841  0.333- 135 1.42 179 1.42 185 1.42
 247  0.458  0.065  0.333- 145 1.42 186 1.42 180 1.42
 248  0.562  0.199  0.333- 187 1.42 181 1.42 186 1.42
 249  0.667  0.333  0.333- 187 1.42 188 1.42 182 1.42
 250  0.771  0.468  0.333- 189 1.42 183 1.42 188 1.42
 251  0.876  0.602  0.333- 189 1.42 190 1.42 184 1.42
 252  0.980  0.736  0.333- 185 1.42 190 1.42 136 1.42
 253  0.592  0.095  0.333- 186 1.42 192 1.42 191 1.42
 254  0.697  0.229  0.333- 192 1.42 193 1.42 187 1.42
 255  0.801  0.363  0.333- 188 1.42 193 1.42 194 1.42
 256  0.905  0.498  0.333- 194 1.42 195 1.42 189 1.42
 257  0.010  0.632  0.333- 138 1.42 195 1.42 190 1.42
 258  0.622  0.990  0.333- 156 1.42 191 1.42 196 1.42
 259  0.726  0.124  0.333- 192 1.42 196 1.42 197 1.42
 260  0.831  0.259  0.333- 198 1.42 197 1.42 193 1.42
 261  0.935  0.393  0.333- 141 1.42 194 1.42 198 1.42
 262  0.040  0.527  0.333- 141 1.42 195 1.42 142 1.42
 263  0.756  0.020  0.333- 199 1.42 196 1.42 164 1.42
 264  0.861  0.154  0.333- 199 1.42 197 1.42 200 1.42
 265  0.965  0.289  0.333- 198 1.42 200 1.42 146 1.42
 266  0.891  0.050  0.333- 172 1.42 201 1.42 199 1.42
 267  0.995  0.184  0.333- 200 1.42 201 1.42 151 1.42
 268  0.025  0.080  0.333- 158 1.42 157 1.42 201 1.42
 
  LATTYP: Found a hexagonal cell.
 ALAT       =    20.1932600000
 C/A-ratio  =     1.0399509539
  
  Lattice vectors:
  
 A1 = (  20.1932600000,   0.0000000000,   0.0000000000)
 A2 = ( -10.0966300000,  17.4878760000,   0.0000000000)
 A3 = (   0.0000000000,   0.0000000000,  21.0000000000)


Analysis of symmetry for initial positions (statically):
=====================================================================
 Subroutine PRICEL returns:
 Original cell was already a primitive cell.
 

 Routine SETGRP: Setting up the symmetry group for a 
 hexagonal supercell.


 Subroutine GETGRP returns: Found  3 space group operations
 (whereof  3 operations were pure point group operations)
 out of a pool of 24 trial point group operations.


The static configuration has the point symmetry C_3 .


Analysis of symmetry for dynamics (positions and initial velocities):
=====================================================================
 Subroutine PRICEL returns:
 Original cell was already a primitive cell.
 

 Routine SETGRP: Setting up the symmetry group for a 
 hexagonal supercell.


 Subroutine GETGRP returns: Found  3 space group operations
 (whereof  3 operations were pure point group operations)
 out of a pool of 24 trial point group operations.


The dynamic configuration has the point symmetry C_3 .


 Subroutine INISYM returns: Found  3 space group operations
 (whereof  3 operations are pure point group operations),
 and found     1 'primitive' translations


----------------------------------------------------------------------------------------

                                     Primitive cell                                     

  volume of cell :    7415.8818

  direct lattice vectors                    reciprocal lattice vectors
    20.193260000  0.000000000  0.000000000     0.049521474  0.028591237  0.000000000
   -10.096630000 17.487876000  0.000000000     0.000000000  0.057182473  0.000000000
     0.000000000  0.000000000 21.000000000     0.000000000  0.000000000  0.047619048

  length of vectors
    20.193260000 20.193259874 21.000000000     0.057182473  0.057182473  0.047619048

  position of ions in fractional coordinates (direct lattice)
     0.094518273  0.592051444  0.500017636
     0.124398213  0.726371206  0.500016936
     0.154215169  0.860684937  0.499992325
     0.184077369  0.995020282  0.500045837
     0.079605171  0.024897135  0.500006624
     0.109454905  0.159208513  0.500034203
     0.139315063  0.293530232  0.499992325
     0.169132784  0.427848335  0.500020821
     0.199013115  0.562185762  0.500035315
     0.228847443  0.696503017  0.500030445
     0.258714550  0.830867216  0.500020821
     0.288553059  0.965181009  0.500033291
     0.213926377  0.129339212  0.500023678
     0.243783031  0.263686655  0.500031969
     0.273628794  0.398027006  0.500016936
     0.303496983  0.532343426  0.500030445
     0.333333000  0.666667000  0.499986824
     0.363172647  0.800986885  0.500035315
     0.393040077  0.935311352  0.500019043
     0.318428903  0.099509131  0.500001643
     0.348238263  0.233821854  0.500002707
     0.378118069  0.368154085  0.500038916
     0.407948556  0.502467828  0.500017636
     0.437814238  0.636827353  0.500035315
     0.467656574  0.771152557  0.500030445
     0.497532172  0.905481727  0.500017636
     0.422875645  0.069641213  0.500030919
     0.452740733  0.203998678  0.500025436
     0.482590788  0.338312647  0.500038988
     0.512450089  0.472647022  0.499992352
     0.542272275  0.606959923  0.500019043
     0.572151665  0.741285450  0.500020821
     0.601972994  0.875601787  0.500016936
     0.631845915  0.009963984  0.500038916
     0.527352978  0.039803067  0.499992352
     0.557216875  0.174124547  0.500038186
     0.587060459  0.308438351  0.500006403
     0.616907672  0.442783125  0.500038186
     0.646765567  0.577124355  0.500030919
     0.676627950  0.711446941  0.500033291
     0.706469768  0.845784831  0.499992325
     0.736313345  0.980097376  0.500031969
     0.661687353  0.144278141  0.500038988
     0.691561649  0.278622108  0.500006403
     0.721377892  0.412939541  0.500006403
     0.751257945  0.547259267  0.500025436
     0.781081229  0.681571097  0.500001643
     0.810942913  0.815922631  0.500045837
     0.840791487  0.950246392  0.500034203
     0.766178146  0.114416409  0.500002707
     0.796001322  0.248742055  0.500025436
     0.825875453  0.383092328  0.500038186
     0.855721859  0.517409212  0.500038988
     0.885583591  0.651761737  0.500002707
     0.915412836  0.786073623  0.500023678
     0.945291964  0.920394829  0.500006624
     0.870660788  0.084587164  0.500023678
     0.900490869  0.218918771  0.500001643
     0.930358787  0.353234433  0.500030919
     0.960196933  0.487549911  0.499992352
     0.990036016  0.621881931  0.500038916
     0.019902624  0.756216969  0.500031969
     0.049753608  0.890545095  0.500034203
     0.975102865  0.054708036  0.500006624
     0.004979718  0.189057087  0.500045837
     0.034818991  0.323372050  0.500033291
     0.064688648  0.457727725  0.500019043
     0.069649389  0.646768520  0.499998326
     0.099501440  0.781090877  0.499981306
     0.129351800  0.915422015  0.499992587
     0.159203602  0.049749671  0.499994542
     0.054724513  0.079606278  0.499987180
     0.084577985  0.213929785  0.499992587
     0.114423605  0.348254097  0.499985055
     0.144279535  0.482588334  0.499991412
     0.174127321  0.616912812  0.500008282
     0.203986004  0.751245563  0.499999806
     0.233830492  0.885576395  0.499985055
     0.263682418  0.019901318  0.500001250
     0.189055041  0.184078748  0.500015297
     0.218909123  0.318411562  0.499981306
     0.248754437  0.452740441  0.499999806
     0.278608918  0.587062766  0.499985023
     0.308453847  0.721391082  0.499985023
     0.338308799  0.855720465  0.499991412
     0.368156687  0.990045826  0.500010663
     0.293529835  0.154225071  0.499976246
     0.323381767  0.288557995  0.499991047
     0.353231480  0.422880869  0.499998326
     0.383087188  0.557214508  0.500008282
     0.412937234  0.691546153  0.499985023
     0.442785492  0.825872679  0.500008282
     0.472638135  0.960197402  0.499976010
     0.398015614  0.124381230  0.499990037
     0.427859943  0.258710154  0.499998764
     0.457713783  0.393035269  0.499995891
     0.487559267  0.527361865  0.499976010
     0.517411666  0.661691201  0.499991412
     0.547259559  0.796013996  0.499999806
     0.577119131  0.930350611  0.499998326
     0.606964731  0.064679514  0.499995891
     0.502485062  0.094527261  0.499987476
     0.532336887  0.228851998  0.499991608
     0.562187730  0.363181525  0.500007880
     0.592043198  0.497514938  0.499987476
     0.621889139  0.631843313  0.500010663
     0.651745903  0.766169508  0.499985055
     0.681588438  0.900498560  0.499981306
     0.711442005  0.034823772  0.499991047
     0.636818475  0.199006205  0.500007880
     0.666667000  0.333333000  0.499971911
     0.696514111  0.467663113  0.499991608
     0.726365616  0.601984386  0.499990037
     0.756219900  0.736317582  0.500001250
     0.786070215  0.870648200  0.499992587
     0.815921252  0.004976293  0.500015297
     0.741289846  0.169148789  0.499998764
     0.771148002  0.303485889  0.499991608
     0.800993795  0.437812270  0.500007880
     0.830851211  0.572140057  0.499998764
     0.860695236  0.706470165  0.499976246
     0.890546069  0.840796398  0.499994542
     0.920393722  0.975118235  0.499987180
     0.845774929  0.139304764  0.499976246
     0.875618770  0.273634384  0.499990037
     0.905472739  0.407956802  0.499987476
     0.935320486  0.542286217  0.499995891
     0.965176228  0.676618233  0.499991047
     0.995023707  0.810944959  0.500015297
     0.024881765  0.945275487  0.499987180
     0.950250329  0.109453931  0.499994542
     0.980098682  0.243780100  0.500001250
     0.009954174  0.378110861  0.500010663
     0.039802598  0.512440733  0.499976010
     0.029837309  0.895519140  0.333316390
     0.059710594  0.791060567  0.333326676
     0.164183453  0.925374611  0.333330193
     0.089545516  0.686556205  0.333321546
     0.194023595  0.820889653  0.333337806
     0.298514881  0.955220614  0.333312182
     0.014911419  0.447753659  0.333332226
     0.119413609  0.582086944  0.333320232
     0.223874641  0.716424447  0.333314664
     0.328360222  0.850747600  0.333325421
     0.432842240  0.985088581  0.333332226
     0.044779386  0.343295268  0.333312182
     0.149252400  0.477612622  0.333325421
     0.253734746  0.611950130  0.333333307
     0.358215385  0.746265254  0.333333307
     0.462673335  0.880586391  0.333320232
     0.074625389  0.238808842  0.333330193
     0.179110347  0.373133942  0.333337806
     0.283575553  0.507450193  0.333314664
     0.388049870  0.641784615  0.333333307
     0.492549807  0.776125359  0.333314664
     0.597010690  0.910454484  0.333321546
     0.000000000  0.000000000  0.333340186
     0.104480860  0.134317169  0.333316390
     0.208939433  0.268651027  0.333326676
     0.313443795  0.402989310  0.333321546
     0.417913056  0.537326665  0.333320232
     0.522387378  0.671639778  0.333325421
     0.626866058  0.805976405  0.333337806
     0.731348973  0.940289406  0.333326676
     0.134331969  0.029851577  0.333325562
     0.238814469  0.164195742  0.333322553
     0.343284997  0.298505505  0.333326281
     0.447755024  0.432836110  0.333334390
     0.552246341  0.567157760  0.333332226
     0.656704732  0.701485119  0.333312182
     0.761191158  0.835816547  0.333330193
     0.865682831  0.970162691  0.333316390
     0.268647614  0.059695097  0.333327382
     0.373136736  0.194024283  0.333337184
     0.477611212  0.328352657  0.333308117
     0.582079855  0.462683345  0.333327803
     0.686578645  0.597025923  0.333321736
     0.791048482  0.731352386  0.333327382
     0.895518608  0.865668031  0.333325562
     0.402974077  0.089552722  0.333321736
     0.507469549  0.223886757  0.333324239
     0.611946831  0.358222290  0.333329565
     0.716417208  0.492530451  0.333324239
     0.820887547  0.626863264  0.333337184
     0.925381273  0.761185531  0.333322553
     0.537316655  0.119396509  0.333327803
     0.641777710  0.253724541  0.333329565
     0.746275459  0.388053169  0.333329565
     0.850741446  0.522388788  0.333308117
     0.955221508  0.656715003  0.333326281
     0.567163890  0.014918914  0.333334390
     0.671647343  0.149258554  0.333308117
     0.776113243  0.283582792  0.333324239
     0.880603491  0.417920145  0.333327803
     0.985081086  0.552244976  0.333334390
     0.701494495  0.044778492  0.333326281
     0.805975717  0.179112453  0.333337184
     0.910447278  0.313421355  0.333321736
     0.835804258  0.074618727  0.333322553
     0.940304903  0.208951518  0.333327382
     0.970148423  0.104481392  0.333325562
     0.084584929  0.870646808  0.333329420
     0.114423344  0.766176681  0.333332951
     0.218909393  0.900497464  0.333336198
     0.144279328  0.661693557  0.333328463
     0.248753427  0.796007217  0.333318359
     0.353222510  0.930345571  0.333321033
     0.069654429  0.422876939  0.333321033
     0.174118024  0.557209968  0.333311173
     0.278614382  0.691545960  0.333334805
     0.383091944  0.825881976  0.333311173
     0.487558799  0.960200367  0.333340030
     0.099502536  0.318412928  0.333336198
     0.203992783  0.452746210  0.333318359
     0.308454040  0.587068422  0.333334805
     0.412931578  0.721385618  0.333334805
     0.517414228  0.855720672  0.333328463
     0.129353192  0.213938121  0.333329420
     0.233823319  0.348246663  0.333332951
     0.338306443  0.482585772  0.333328463
     0.442790032  0.616908056  0.333311173
     0.547253790  0.751246573  0.333318359
     0.651753337  0.885576656  0.333332951
     0.054719398  0.975112257  0.333330003
     0.159195862  0.109448107  0.333325905
     0.263691090  0.243776978  0.333320758
     0.368152597  0.378114617  0.333307625
     0.472641568  0.512441201  0.333340030
     0.577123061  0.646777490  0.333321033
     0.681587072  0.781090607  0.333336198
     0.786061879  0.915415071  0.333329420
     0.189056633  0.004980962  0.333302408
     0.293530444  0.139308336  0.333339379
     0.398019115  0.273638212  0.333328164
     0.502486287  0.407958985  0.333332394
     0.606954078  0.542276426  0.333326063
     0.711443949  0.676615598  0.333329212
     0.815924330  0.810943367  0.333302408
     0.920392859  0.945280602  0.333330003
     0.323384402  0.034828351  0.333329212
     0.427851599  0.169138847  0.333320498
     0.532332500  0.303482030  0.333327621
     0.636827802  0.437811061  0.333312788
     0.741288248  0.572148401  0.333320498
     0.845777892  0.706469556  0.333339379
     0.950252245  0.840804138  0.333325905
     0.457723574  0.064678652  0.333326063
     0.562188939  0.199016741  0.333312788
     0.666667000  0.333333000  0.333342881
     0.771148530  0.467667500  0.333327621
     0.875619097  0.601980885  0.333328164
     0.980086888  0.736308910  0.333320758
     0.592041015  0.094526302  0.333332394
     0.696517970  0.228851470  0.333327621
     0.800983259  0.363172198  0.333312788
     0.905473698  0.497513713  0.333332394
     0.009962020  0.631847403  0.333307625
     0.621885383  0.990037980  0.333307625
     0.726361788  0.124380903  0.333328164
     0.830861153  0.258711752  0.333320498
     0.935321348  0.393045922  0.333326063
     0.039799633  0.527358432  0.333340030
     0.756223022  0.019913112  0.333320758
     0.860691664  0.154222108  0.333339379
     0.965171649  0.288556051  0.333329212
     0.890551893  0.049747755  0.333325905
     0.995019038  0.184075670  0.333302408
     0.024887743  0.079607141  0.333330003

  ion indices of the primitive-cell ions
   primitive index   ion index
                 1           1
                 2           2
                 3           3
                 4           4
                 5           5
                 6           6
                 7           7
                 8           8
                 9           9
                10          10
                11          11
                12          12
                13          13
                14          14
                15          15
                16          16
                17          17
                18          18
                19          19
                20          20
                21          21
                22          22
                23          23
                24          24
                25          25
                26          26
                27          27
                28          28
                29          29
                30          30
                31          31
                32          32
                33          33
                34          34
                35          35
                36          36
                37          37
                38          38
                39          39
                40          40
                41          41
                42          42
                43          43
                44          44
                45          45
                46          46
                47          47
                48          48
                49          49
                50          50
                51          51
                52          52
                53          53
                54          54
                55          55
                56          56
                57          57
                58          58
                59          59
                60          60
                61          61
                62          62
                63          63
                64          64
                65          65
                66          66
                67          67
                68          68
                69          69
                70          70
                71          71
                72          72
                73          73
                74          74
                75          75
                76          76
                77          77
                78          78
                79          79
                80          80
                81          81
                82          82
                83          83
                84          84
                85          85
                86          86
                87          87
                88          88
                89          89
                90          90
                91          91
                92          92
                93          93
                94          94
                95          95
                96          96
                97          97
                98          98
                99          99
               100         100
               101         101
               102         102
               103         103
               104         104
               105         105
               106         106
               107         107
               108         108
               109         109
               110         110
               111         111
               112         112
               113         113
               114         114
               115         115
               116         116
               117         117
               118         118
               119         119
               120         120
               121         121
               122         122
               123         123
               124         124
               125         125
               126         126
               127         127
               128         128
               129         129
               130         130
               131         131
               132         132
               133         133
               134         134
               135         135
               136         136
               137         137
               138         138
               139         139
               140         140
               141         141
               142         142
               143         143
               144         144
               145         145
               146         146
               147         147
               148         148
               149         149
               150         150
               151         151
               152         152
               153         153
               154         154
               155         155
               156         156
               157         157
               158         158
               159         159
               160         160
               161         161
               162         162
               163         163
               164         164
               165         165
               166         166
               167         167
               168         168
               169         169
               170         170
               171         171
               172         172
               173         173
               174         174
               175         175
               176         176
               177         177
               178         178
               179         179
               180         180
               181         181
               182         182
               183         183
               184         184
               185         185
               186         186
               187         187
               188         188
               189         189
               190         190
               191         191
               192         192
               193         193
               194         194
               195         195
               196         196
               197         197
               198         198
               199         199
               200         200
               201         201
               202         202
               203         203
               204         204
               205         205
               206         206
               207         207
               208         208
               209         209
               210         210
               211         211
               212         212
               213         213
               214         214
               215         215
               216         216
               217         217
               218         218
               219         219
               220         220
               221         221
               222         222
               223         223
               224         224
               225         225
               226         226
               227         227
               228         228
               229         229
               230         230
               231         231
               232         232
               233         233
               234         234
               235         235
               236         236
               237         237
               238         238
               239         239
               240         240
               241         241
               242         242
               243         243
               244         244
               245         245
               246         246
               247         247
               248         248
               249         249
               250         250
               251         251
               252         252
               253         253
               254         254
               255         255
               256         256
               257         257
               258         258
               259         259
               260         260
               261         261
               262         262
               263         263
               264         264
               265         265
               266         266
               267         267
               268         268

----------------------------------------------------------------------------------------

 
 
 KPOINTS: Automatic generation                    

Automatic generation of k-mesh.
 Grid dimensions read from file:
 generate k-points for:   18   18    1

 Generating k-lattice:

  Cartesian coordinates                     Fractional coordinates (reciprocal lattice)
     0.002751193  0.001588402  0.000000000     0.055555556  0.000000000  0.000000000
     0.000000000  0.003176804  0.000000000     0.000000000  0.055555556  0.000000000
     0.000000000  0.000000000  0.047619048     0.000000000  0.000000000  1.000000000

  Length of vectors
     0.003176804  0.003176804  0.047619048

  Shift w.r.t. Gamma in fractional coordinates (k-lattice)
     0.000000000  0.000000000  0.000000000

 
 Subroutine IBZKPT returns following result:
 ===========================================
 
 Found     56 irreducible k-points:
 
 Following reciprocal coordinates:
            Coordinates               Weight
  0.000000  0.000000  0.000000      1.000000
  0.055556 -0.000000  0.000000      6.000000
  0.111111 -0.000000  0.000000      6.000000
  0.166667  0.000000  0.000000      6.000000
  0.222222  0.000000  0.000000      6.000000
  0.277778 -0.000000  0.000000      6.000000
  0.333333 -0.000000  0.000000      6.000000
  0.388889  0.000000  0.000000      6.000000
  0.444444  0.000000  0.000000      6.000000
  0.500000 -0.000000  0.000000      3.000000
  0.055556  0.055556  0.000000      6.000000
  0.111111  0.055556  0.000000      6.000000
 -0.111111  0.166667  0.000000      6.000000
  0.166667  0.055556  0.000000      6.000000
 -0.166667  0.222222  0.000000      6.000000
  0.222222  0.055556  0.000000      6.000000
 -0.222222  0.277778  0.000000      6.000000
  0.277778  0.055556  0.000000      6.000000
 -0.277778  0.333333  0.000000      6.000000
  0.333333  0.055556  0.000000      6.000000
 -0.333333  0.388889  0.000000      6.000000
  0.388889  0.055556  0.000000      6.000000
 -0.388889  0.444444  0.000000      6.000000
  0.444444  0.055556  0.000000      6.000000
 -0.444444  0.500000  0.000000      6.000000
  0.111111  0.111111  0.000000      6.000000
  0.166667  0.111111  0.000000      6.000000
 -0.166667  0.277778  0.000000      6.000000
  0.222222  0.111111  0.000000      6.000000
 -0.222222  0.333333  0.000000      6.000000
  0.277778  0.111111  0.000000      6.000000
 -0.277778  0.388889  0.000000      6.000000
  0.333333  0.111111  0.000000      6.000000
 -0.333333  0.444444  0.000000      6.000000
  0.388889  0.111111  0.000000      6.000000
 -0.388889  0.500000  0.000000      6.000000
  0.444444  0.111111  0.000000      6.000000
  0.166667  0.166667  0.000000      6.000000
  0.222222  0.166667  0.000000      6.000000
 -0.222222  0.388889  0.000000      6.000000
  0.277778  0.166667  0.000000      6.000000
 -0.277778  0.444444  0.000000      6.000000
  0.333333  0.166667  0.000000      6.000000
 -0.333333  0.500000  0.000000      6.000000
  0.388889  0.166667  0.000000      6.000000
 -0.388889 -0.444444  0.000000      6.000000
  0.222222  0.222222  0.000000      6.000000
  0.277778  0.222222  0.000000      6.000000
 -0.277778  0.500000  0.000000      6.000000
  0.333333  0.222222  0.000000      6.000000
 -0.333333 -0.444444  0.000000      6.000000
  0.388889  0.222222  0.000000      6.000000
  0.277778  0.277778  0.000000      6.000000
  0.333333  0.277778  0.000000      6.000000
 -0.333333 -0.388889  0.000000      6.000000
  0.333333  0.333333  0.000000      2.000000
 
 Following cartesian coordinates:
            Coordinates               Weight
  0.000000  0.000000  0.000000      1.000000
  0.002751  0.001588  0.000000      6.000000
  0.005502  0.003177  0.000000      6.000000
  0.008254  0.004765  0.000000      6.000000
  0.011005  0.006354  0.000000      6.000000
  0.013756  0.007942  0.000000      6.000000
  0.016507  0.009530  0.000000      6.000000
  0.019258  0.011119  0.000000      6.000000
  0.022010  0.012707  0.000000      6.000000
  0.024761  0.014296  0.000000      3.000000
  0.002751  0.004765  0.000000      6.000000
  0.005502  0.006354  0.000000      6.000000
 -0.005502  0.006354  0.000000      6.000000
  0.008254  0.007942  0.000000      6.000000
 -0.008254  0.007942  0.000000      6.000000
  0.011005  0.009530  0.000000      6.000000
 -0.011005  0.009530  0.000000      6.000000
  0.013756  0.011119  0.000000      6.000000
 -0.013756  0.011119  0.000000      6.000000
  0.016507  0.012707  0.000000      6.000000
 -0.016507  0.012707  0.000000      6.000000
  0.019258  0.014296  0.000000      6.000000
 -0.019258  0.014296  0.000000      6.000000
  0.022010  0.015884  0.000000      6.000000
 -0.022010  0.015884  0.000000      6.000000
  0.005502  0.009530  0.000000      6.000000
  0.008254  0.011119  0.000000      6.000000
 -0.008254  0.011119  0.000000      6.000000
  0.011005  0.012707  0.000000      6.000000
 -0.011005  0.012707  0.000000      6.000000
  0.013756  0.014296  0.000000      6.000000
 -0.013756  0.014296  0.000000      6.000000
  0.016507  0.015884  0.000000      6.000000
 -0.016507  0.015884  0.000000      6.000000
  0.019258  0.017472  0.000000      6.000000
 -0.019258  0.017472  0.000000      6.000000
  0.022010  0.019061  0.000000      6.000000
  0.008254  0.014296  0.000000      6.000000
  0.011005  0.015884  0.000000      6.000000
 -0.011005  0.015884  0.000000      6.000000
  0.013756  0.017472  0.000000      6.000000
 -0.013756  0.017472  0.000000      6.000000
  0.016507  0.019061  0.000000      6.000000
 -0.016507  0.019061  0.000000      6.000000
  0.019258  0.020649  0.000000      6.000000
 -0.019258 -0.036533  0.000000      6.000000
  0.011005  0.019061  0.000000      6.000000
  0.013756  0.020649  0.000000      6.000000
 -0.013756  0.020649  0.000000      6.000000
  0.016507  0.022238  0.000000      6.000000
 -0.016507 -0.034945  0.000000      6.000000
  0.019258  0.023826  0.000000      6.000000
  0.013756  0.023826  0.000000      6.000000
  0.016507  0.025414  0.000000      6.000000
 -0.016507 -0.031768  0.000000      6.000000
  0.016507  0.028591  0.000000      2.000000
 
 -----------------------------------------------------------------------------
|                                                                             |
|           W    W    AA    RRRRR   N    N  II  N    N   GGGG   !!!           |
|           W    W   A  A   R    R  NN   N  II  NN   N  G    G  !!!           |
|           W    W  A    A  R    R  N N  N  II  N N  N  G       !!!           |
|           W WW W  AAAAAA  RRRRR   N  N N  II  N  N N  G  GGG   !            |
|           WW  WW  A    A  R   R   N   NN  II  N   NN  G    G                |
|           W    W  A    A  R    R  N    N  II  N    N   GGGG   !!!           |
|                                                                             |
|     The number of bands has been changed from the values supplied in        |
|     the INCAR file. This is a result of running the parallel version.       |
|     The orbitals not found in the WAVECAR file will be initialized with     |
|     random numbers, which is usually adequate. For correlated               |
|     calculations, however, you should redo the groundstate calculation.     |
|     I found NBANDS = 1072. Now, NBANDS = 1092.                              |
|                                                                             |
 -----------------------------------------------------------------------------



--------------------------------------------------------------------------------------------------------




 Dimension of arrays:
   k-points           NKPTS =     56   k-points in BZ     NKDIM =     56   number of bands    NBANDS=   1092
   number of dos      NEDOS =   2000   number of ions     NIONS =    268
   non local maximal  LDIM  =      4   non local SUM 2l+1 LMDIM =      8
   total plane-waves  NPLWV = ******
   max r-space proj   IRMAX =      1   max aug-charges    IRDMAX=   5969
   dimension x,y,z NGX =   140 NGY =  140 NGZ =  140
   dimension x,y,z NGXF=   280 NGYF=  280 NGZF=  280
   support grid    NGXF=   280 NGYF=  280 NGZF=  280
   ions per type =              67  67 134
   NGX,Y,Z   is equivalent  to a cutoff of  11.53, 11.53, 11.08 a.u.
   NGXF,Y,Z  is equivalent  to a cutoff of  23.05, 23.05, 22.17 a.u.

 SYSTEM =  BN/gr                                   
 POSCAR =  B67 C134 N67                            

 Startparameter for this run:
   NWRITE =      2    write-flag & timer
   PREC   = accura    normal or accurate (medium, high low for compatibility)
   ISTART =      1    job   : 0-new  1-cont  2-samecut
   ICHARG =      0    charge: 1-file 2-atom 10-const
   ISPIN  =      1    spin polarized calculation?
   LNONCOLLINEAR =      F non collinear calculations
   LSORBIT =      F    spin-orbit coupling
   INIWAV =      1    electr: 0-lowe 1-rand  2-diag
   LASPH  =      F    aspherical Exc in radial PAW
 Electronic Relaxation 1
   ENCUT  =  400.0 eV  29.40 Ry    5.42 a.u.  32.93 32.93 34.25*2*pi/ulx,y,z
   ENINI  =  400.0     initial cutoff
   ENAUG  =  644.9 eV  augmentation charge cutoff
   NELM   =    100;   NELMIN=  2; NELMDL=  0     # of ELM steps 
   EDIFF  = 0.1E-07   stopping-criterion for ELM
   LREAL  =      F    real-space projection
   NLSPLINE    = F    spline interpolate recip. space projectors
   LCOMPAT=      F    compatible to vasp.4.4
   GGA_COMPAT  = T    GGA compatible to vasp.4.4-vasp.4.6
   LMAXPAW     = -100 max onsite density
   LMAXMIX     =    2 max onsite mixed and CHGCAR
   VOSKOWN=      0    Vosko Wilk Nusair interpolation
   ROPT   =    0.00000   0.00000   0.00000
 Ionic relaxation
   EDIFFG = 0.1E-06   stopping-criterion for IOM
   NSW    =      0    number of steps for IOM
   NBLOCK =      1;   KBLOCK =      1    inner block; outer block 
   IBRION =     -1    ionic relax: 0-MD 1-quasi-New 2-CG
   NFREE  =      0    steps in history (QN), initial steepest desc. (CG)
   ISIF   =      2    stress and relaxation
   IWAVPR =     10    prediction:  0-non 1-charg 2-wave 3-comb
   ISYM   =      2    0-nonsym 1-usesym 2-fastsym
   LCORR  =      T    Harris-Foulkes like correction to forces

   POTIM  = 0.5000    time-step for ionic-motion
   TEIN   =    0.0    initial temperature
   TEBEG  =    0.0;   TEEND  =   0.0 temperature during run
   SMASS  =  -3.00    Nose mass-parameter (am)
   estimated Nose-frequenzy (Omega)   =  0.10E-29 period in steps = 0.13E+47 mass=  -0.932E-26a.u.
   SCALEE = 1.0000    scale energy and forces
   NPACO  =    256;   APACO  = 10.0  distance and # of slots for P.C.
   PSTRESS=    0.0 pullay stress

  Mass of Ions in am
   POMASS =  14.00 10.81 12.01
  Ionic Valenz
   ZVAL   =   5.00  3.00  4.00
  Atomic Wigner-Seitz radii
   RWIGS  =  -1.00 -1.00 -1.00
  virtual crystal weights 
   VCA    =   1.00  1.00  1.00
   NELECT =    1072.0000    total number of electrons
   NUPDOWN=      -1.0000    fix difference up-down

 DOS related values:
   EMIN   =  10.00;   EMAX   =-10.00  energy-range for DOS
   EFERMI =   0.00
   ISMEAR =     0;   SIGMA  =   0.05  broadening in eV -4-tet -1-fermi 0-gaus

 Electronic relaxation 2 (details)
   IALGO  =     38    algorithm
   LDIAG  =      T    sub-space diagonalisation (order eigenvalues)
   LSUBROT=      F    optimize rotation matrix (better conditioning)
   TURBO    =      0    0=normal 1=particle mesh
   IRESTART =      0    0=no restart 2=restart with 2 vectors
   NREBOOT  =      0    no. of reboots
   NMIN     =      0    reboot dimension
   EREF     =   0.00    reference energy to select bands
   IMIX   =      4    mixing-type and parameters
     AMIX     =   0.40;   BMIX     =  1.00
     AMIX_MAG =   1.60;   BMIX_MAG =  1.00
     AMIN     =   0.10
     WC   =   100.;   INIMIX=   1;  MIXPRE=   1;  MAXMIX= -45

 Intra band minimization:
   WEIMIN = 0.0000     energy-eigenvalue tresh-hold
   EBREAK =  0.23E-11  absolut break condition
   DEPER  =   0.30     relativ break condition  

   TIME   =   0.40     timestep for ELM

  volume/ion in A,a.u.               =      27.67       186.73
  Fermi-wavevector in a.u.,A,eV,Ry     =   0.859183  1.623620 10.043750  0.738195
  Thomas-Fermi vector in A             =   1.976499
 
 Write flags
   LWAVE        =      F    write WAVECAR
   LDOWNSAMPLE  =      F    k-point downsampling of WAVECAR
   LCHARG       =      F    write CHGCAR
   LVTOT        =      F    write LOCPOT, total local potential
   LVHAR        =      F    write LOCPOT, Hartree potential only
   LELF         =      F    write electronic localiz. function (ELF)
   LORBIT       =      0    0 simple, 1 ext, 2 COOP (PROOUT), +10 PAW based schemes


 Dipole corrections
   LMONO  =      F    monopole corrections only (constant potential shift)
   LDIPOL =      F    correct potential (dipole corrections)
   IDIPOL =      0    1-x, 2-y, 3-z, 4-all directions 
   EPSILON=  1.0000000 bulk dielectric constant

 Exchange correlation treatment:
   GGA     =    --    GGA type
   LEXCH   =     8    internal setting for exchange type
   LIBXC   =     F    Libxc                    
   VOSKOWN =     0    Vosko Wilk Nusair interpolation
   LHFCALC =     F    Hartree Fock is set to
   LHFONE  =     F    Hartree Fock one center treatment
   AEXX    =    0.0000 exact exchange contribution

 Linear response parameters
   LEPSILON=     F    determine dielectric tensor
   LRPA    =     F    only Hartree local field effects (RPA)
   LNABLA  =     F    use nabla operator in PAW spheres
   LVEL    =     F    velocity operator in full k-point grid
   CSHIFT  =0.1000    complex shift for real part using Kramers Kronig
   OMEGAMAX=  -1.0    maximum frequency
   DEG_THRESHOLD= 0.2000000E-02 threshold for treating states as degnerate
   RTIME   =   -0.100 relaxation time in fs
  (WPLASMAI=    0.000 imaginary part of plasma frequency in eV, 0.658/RTIME)
   DFIELD  = 0.0000000 0.0000000 0.0000000 field for delta impulse in time
 
  Optional k-point grid parameters
   LKPOINTS_OPT  =     F    use optional k-point grid
   KPOINTS_OPT_MODE=     1    mode for optional k-point grid
 
 Orbital magnetization related:
   ORBITALMAG=     F  switch on orbital magnetization
   LCHIMAG   =     F  perturbation theory with respect to B field
   DQ        =  0.001000  dq finite difference perturbation B field
   LLRAUG    =     F  two centre corrections for induced B field



--------------------------------------------------------------------------------------------------------


 Static calculation
 charge density and potential will be updated during run
 non-spin polarized calculation
 Variant of blocked Davidson
 Davidson routine will perform the subspace rotation
 perform sub-space diagonalisation
    after iterative eigenvector-optimisation
 modified Broyden-mixing scheme, WC =      100.0
 initial mixing is a Kerker type mixing with AMIX =  0.4000 and BMIX =      1.0000
 Hartree-type preconditioning will be used
 using additional bands          556
 reciprocal scheme for non local part
 use partial core corrections
 calculate Harris-corrections to forces 
   (improved forces if not selfconsistent)
 use gradient corrections 
 use of overlap-Matrix (Vanderbilt PP)
 Gauss-broadening in eV      SIGMA  =   0.05


--------------------------------------------------------------------------------------------------------


  energy-cutoff  :      400.00
  volume of cell :     7415.88
      direct lattice vectors                 reciprocal lattice vectors
    20.193260000  0.000000000  0.000000000     0.049521474  0.028591237  0.000000000
   -10.096630000 17.487876000  0.000000000     0.000000000  0.057182473  0.000000000
     0.000000000  0.000000000 21.000000000     0.000000000  0.000000000  0.047619048

  length of vectors
    20.193260000 20.193259874 21.000000000     0.057182473  0.057182473  0.047619048


 
 old parameters found on file WAVECAR:
  energy-cutoff  :      400.00
  volume of cell :     7415.88
      direct lattice vectors                 reciprocal lattice vectors
    20.193260000  0.000000000  0.000000000     0.049521474  0.028591237  0.000000000
   -10.096630000 17.487876000  0.000000000     0.000000000  0.057182473  0.000000000
     0.000000000  0.000000000 21.000000000     0.000000000  0.000000000  0.047619048

  length of vectors

 
 k-points in units of 2pi/SCALE and weight: Automatic generation                    
   0.00000000  0.00000000  0.00000000       0.003
   0.00275119  0.00158840  0.00000000       0.019
   0.00550239  0.00317680  0.00000000       0.019
   0.00825358  0.00476521  0.00000000       0.019
   0.01100477  0.00635361  0.00000000       0.019
   0.01375596  0.00794201  0.00000000       0.019
   0.01650716  0.00953041  0.00000000       0.019
   0.01925835  0.01111881  0.00000000       0.019
   0.02200954  0.01270722  0.00000000       0.019
   0.02476074  0.01429562  0.00000000       0.009
   0.00275119  0.00476521  0.00000000       0.019
   0.00550239  0.00635361  0.00000000       0.019
  -0.00550239  0.00635361  0.00000000       0.019
   0.00825358  0.00794201  0.00000000       0.019
  -0.00825358  0.00794201  0.00000000       0.019
   0.01100477  0.00953041  0.00000000       0.019
  -0.01100477  0.00953041  0.00000000       0.019
   0.01375596  0.01111881  0.00000000       0.019
  -0.01375596  0.01111881  0.00000000       0.019
   0.01650716  0.01270722  0.00000000       0.019
  -0.01650716  0.01270722  0.00000000       0.019
   0.01925835  0.01429562  0.00000000       0.019
  -0.01925835  0.01429562  0.00000000       0.019
   0.02200954  0.01588402  0.00000000       0.019
  -0.02200954  0.01588402  0.00000000       0.019
   0.00550239  0.00953041  0.00000000       0.019
   0.00825358  0.01111881  0.00000000       0.019
  -0.00825358  0.01111881  0.00000000       0.019
   0.01100477  0.01270722  0.00000000       0.019
  -0.01100477  0.01270722  0.00000000       0.019
   0.01375596  0.01429562  0.00000000       0.019
  -0.01375596  0.01429562  0.00000000       0.019
   0.01650716  0.01588402  0.00000000       0.019
  -0.01650716  0.01588402  0.00000000       0.019
   0.01925835  0.01747242  0.00000000       0.019
  -0.01925835  0.01747242  0.00000000       0.019
   0.02200954  0.01906082  0.00000000       0.019
   0.00825358  0.01429562  0.00000000       0.019
   0.01100477  0.01588402  0.00000000       0.019
  -0.01100477  0.01588402  0.00000000       0.019
   0.01375596  0.01747242  0.00000000       0.019
  -0.01375596  0.01747242  0.00000000       0.019
   0.01650716  0.01906082  0.00000000       0.019
  -0.01650716  0.01906082  0.00000000       0.019
   0.01925835  0.02064923  0.00000000       0.019
  -0.01925835 -0.03653325  0.00000000       0.019
   0.01100477  0.01906082  0.00000000       0.019
   0.01375596  0.02064923  0.00000000       0.019
  -0.01375596  0.02064923  0.00000000       0.019
   0.01650716  0.02223763  0.00000000       0.019
  -0.01650716 -0.03494484  0.00000000       0.019
   0.01925835  0.02382603  0.00000000       0.019
   0.01375596  0.02382603  0.00000000       0.019
   0.01650716  0.02541443  0.00000000       0.019
  -0.01650716 -0.03176804  0.00000000       0.019
   0.01650716  0.02859124  0.00000000       0.006
 
 k-points in reciprocal lattice and weights: Automatic generation                    
   0.00000000  0.00000000  0.00000000       0.003
   0.05555556 -0.00000000  0.00000000       0.019
   0.11111111 -0.00000000  0.00000000       0.019
   0.16666667  0.00000000  0.00000000       0.019
   0.22222222  0.00000000  0.00000000       0.019
   0.27777778 -0.00000000  0.00000000       0.019
   0.33333333 -0.00000000  0.00000000       0.019
   0.38888889  0.00000000  0.00000000       0.019
   0.44444444  0.00000000  0.00000000       0.019
   0.50000000 -0.00000000  0.00000000       0.009
   0.05555556  0.05555556  0.00000000       0.019
   0.11111111  0.05555556  0.00000000       0.019
  -0.11111111  0.16666667  0.00000000       0.019
   0.16666667  0.05555556  0.00000000       0.019
  -0.16666667  0.22222222  0.00000000       0.019
   0.22222222  0.05555556  0.00000000       0.019
  -0.22222222  0.27777778  0.00000000       0.019
   0.27777778  0.05555556  0.00000000       0.019
  -0.27777778  0.33333333  0.00000000       0.019
   0.33333333  0.05555556  0.00000000       0.019
  -0.33333333  0.38888889  0.00000000       0.019
   0.38888889  0.05555556  0.00000000       0.019
  -0.38888889  0.44444444  0.00000000       0.019
   0.44444444  0.05555556  0.00000000       0.019
  -0.44444444  0.50000000  0.00000000       0.019
   0.11111111  0.11111111  0.00000000       0.019
   0.16666667  0.11111111  0.00000000       0.019
  -0.16666667  0.27777778  0.00000000       0.019
   0.22222222  0.11111111  0.00000000       0.019
  -0.22222222  0.33333333  0.00000000       0.019
   0.27777778  0.11111111  0.00000000       0.019
  -0.27777778  0.38888889  0.00000000       0.019
   0.33333333  0.11111111  0.00000000       0.019
  -0.33333333  0.44444444  0.00000000       0.019
   0.38888889  0.11111111  0.00000000       0.019
  -0.38888889  0.50000000  0.00000000       0.019
   0.44444444  0.11111111  0.00000000       0.019
   0.16666667  0.16666667  0.00000000       0.019
   0.22222222  0.16666667  0.00000000       0.019
  -0.22222222  0.38888889  0.00000000       0.019
   0.27777778  0.16666667  0.00000000       0.019
  -0.27777778  0.44444444  0.00000000       0.019
   0.33333333  0.16666667  0.00000000       0.019
  -0.33333333  0.50000000  0.00000000       0.019
   0.38888889  0.16666667  0.00000000       0.019
  -0.38888889 -0.44444444  0.00000000       0.019
   0.22222222  0.22222222  0.00000000       0.019
   0.27777778  0.22222222  0.00000000       0.019
  -0.27777778  0.50000000  0.00000000       0.019
   0.33333333  0.22222222  0.00000000       0.019
  -0.33333333 -0.44444444  0.00000000       0.019
   0.38888889  0.22222222  0.00000000       0.019
   0.27777778  0.27777778  0.00000000       0.019
   0.33333333  0.27777778  0.00000000       0.019
  -0.33333333 -0.38888889  0.00000000       0.019
   0.33333333  0.33333333  0.00000000       0.006
 
 position of ions in fractional coordinates (direct lattice) 
   0.09451827  0.59205144  0.50001764
   0.12439821  0.72637121  0.50001694
   0.15421517  0.86068494  0.49999232
   0.18407737  0.99502028  0.50004584
   0.07960517  0.02489713  0.50000662
   0.10945490  0.15920851  0.50003420
   0.13931506  0.29353023  0.49999232
   0.16913278  0.42784833  0.50002082
   0.19901311  0.56218576  0.50003531
   0.22884744  0.69650302  0.50003045
   0.25871455  0.83086722  0.50002082
   0.28855306  0.96518101  0.50003329
   0.21392638  0.12933921  0.50002368
   0.24378303  0.26368666  0.50003197
   0.27362879  0.39802701  0.50001694
   0.30349698  0.53234343  0.50003045
   0.33333300  0.66666700  0.49998682
   0.36317265  0.80098689  0.50003531
   0.39304008  0.93531135  0.50001904
   0.31842890  0.09950913  0.50000164
   0.34823826  0.23382185  0.50000271
   0.37811807  0.36815409  0.50003892
   0.40794856  0.50246783  0.50001764
   0.43781424  0.63682735  0.50003531
   0.46765657  0.77115256  0.50003045
   0.49753217  0.90548173  0.50001764
   0.42287565  0.06964121  0.50003092
   0.45274073  0.20399868  0.50002544
   0.48259079  0.33831265  0.50003899
   0.51245009  0.47264702  0.49999235
   0.54227227  0.60695992  0.50001904
   0.57215167  0.74128545  0.50002082
   0.60197299  0.87560179  0.50001694
   0.63184591  0.00996398  0.50003892
   0.52735298  0.03980307  0.49999235
   0.55721687  0.17412455  0.50003819
   0.58706046  0.30843835  0.50000640
   0.61690767  0.44278313  0.50003819
   0.64676557  0.57712435  0.50003092
   0.67662795  0.71144694  0.50003329
   0.70646977  0.84578483  0.49999232
   0.73631334  0.98009738  0.50003197
   0.66168735  0.14427814  0.50003899
   0.69156165  0.27862211  0.50000640
   0.72137789  0.41293954  0.50000640
   0.75125794  0.54725927  0.50002544
   0.78108123  0.68157110  0.50000164
   0.81094291  0.81592263  0.50004584
   0.84079149  0.95024639  0.50003420
   0.76617815  0.11441641  0.50000271
   0.79600132  0.24874206  0.50002544
   0.82587545  0.38309233  0.50003819
   0.85572186  0.51740921  0.50003899
   0.88558359  0.65176174  0.50000271
   0.91541284  0.78607362  0.50002368
   0.94529196  0.92039483  0.50000662
   0.87066079  0.08458716  0.50002368
   0.90049087  0.21891877  0.50000164
   0.93035879  0.35323443  0.50003092
   0.96019693  0.48754991  0.49999235
   0.99003602  0.62188193  0.50003892
   0.01990262  0.75621697  0.50003197
   0.04975361  0.89054510  0.50003420
   0.97510287  0.05470804  0.50000662
   0.00497972  0.18905709  0.50004584
   0.03481899  0.32337205  0.50003329
   0.06468865  0.45772773  0.50001904
   0.06964939  0.64676852  0.49999833
   0.09950144  0.78109088  0.49998131
   0.12935180  0.91542201  0.49999259
   0.15920360  0.04974967  0.49999454
   0.05472451  0.07960628  0.49998718
   0.08457799  0.21392979  0.49999259
   0.11442361  0.34825410  0.49998505
   0.14427954  0.48258833  0.49999141
   0.17412732  0.61691281  0.50000828
   0.20398600  0.75124556  0.49999981
   0.23383049  0.88557639  0.49998505
   0.26368242  0.01990132  0.50000125
   0.18905504  0.18407875  0.50001530
   0.21890912  0.31841156  0.49998131
   0.24875444  0.45274044  0.49999981
   0.27860892  0.58706277  0.49998502
   0.30845385  0.72139108  0.49998502
   0.33830880  0.85572046  0.49999141
   0.36815669  0.99004583  0.50001066
   0.29352983  0.15422507  0.49997625
   0.32338177  0.28855799  0.49999105
   0.35323148  0.42288087  0.49999833
   0.38308719  0.55721451  0.50000828
   0.41293723  0.69154615  0.49998502
   0.44278549  0.82587268  0.50000828
   0.47263813  0.96019740  0.49997601
   0.39801561  0.12438123  0.49999004
   0.42785994  0.25871015  0.49999876
   0.45771378  0.39303527  0.49999589
   0.48755927  0.52736187  0.49997601
   0.51741167  0.66169120  0.49999141
   0.54725956  0.79601400  0.49999981
   0.57711913  0.93035061  0.49999833
   0.60696473  0.06467951  0.49999589
   0.50248506  0.09452726  0.49998748
   0.53233689  0.22885200  0.49999161
   0.56218773  0.36318153  0.50000788
   0.59204320  0.49751494  0.49998748
   0.62188914  0.63184331  0.50001066
   0.65174590  0.76616951  0.49998505
   0.68158844  0.90049856  0.49998131
   0.71144201  0.03482377  0.49999105
   0.63681847  0.19900620  0.50000788
   0.66666700  0.33333300  0.49997191
   0.69651411  0.46766311  0.49999161
   0.72636562  0.60198439  0.49999004
   0.75621990  0.73631758  0.50000125
   0.78607021  0.87064820  0.49999259
   0.81592125  0.00497629  0.50001530
   0.74128985  0.16914879  0.49999876
   0.77114800  0.30348589  0.49999161
   0.80099380  0.43781227  0.50000788
   0.83085121  0.57214006  0.49999876
   0.86069524  0.70647017  0.49997625
   0.89054607  0.84079640  0.49999454
   0.92039372  0.97511823  0.49998718
   0.84577493  0.13930476  0.49997625
   0.87561877  0.27363438  0.49999004
   0.90547274  0.40795680  0.49998748
   0.93532049  0.54228622  0.49999589
   0.96517623  0.67661823  0.49999105
   0.99502371  0.81094496  0.50001530
   0.02488177  0.94527549  0.49998718
   0.95025033  0.10945393  0.49999454
   0.98009868  0.24378010  0.50000125
   0.00995417  0.37811086  0.50001066
   0.03980260  0.51244073  0.49997601
   0.02983731  0.89551914  0.33331639
   0.05971059  0.79106057  0.33332668
   0.16418345  0.92537461  0.33333019
   0.08954552  0.68655621  0.33332155
   0.19402360  0.82088965  0.33333781
   0.29851488  0.95522061  0.33331218
   0.01491142  0.44775366  0.33333223
   0.11941361  0.58208694  0.33332023
   0.22387464  0.71642445  0.33331466
   0.32836022  0.85074760  0.33332542
   0.43284224  0.98508858  0.33333223
   0.04477939  0.34329527  0.33331218
   0.14925240  0.47761262  0.33332542
[...]
   36.920810    0.000030    0.000030    0.000049   -0.000000    0.000000   -0.000000
   37.121466    0.000029    0.000029    0.000047   -0.000000    0.000000   -0.000000
   37.322123    0.000028    0.000028    0.000046   -0.000000    0.000000   -0.000000
   37.522780    0.000027    0.000027    0.000044   -0.000000    0.000000   -0.000000
   37.723436    0.000026    0.000026    0.000043   -0.000000    0.000000   -0.000000
   37.924093    0.000026    0.000026    0.000041   -0.000000    0.000000   -0.000000
   38.124749    0.000025    0.000025    0.000040   -0.000000    0.000000   -0.000000
   38.325406    0.000024    0.000024    0.000039   -0.000000    0.000000   -0.000000
   38.526062    0.000023    0.000023    0.000038   -0.000000    0.000000   -0.000000
   38.726719    0.000023    0.000023    0.000036   -0.000000    0.000000   -0.000000
   38.927376    0.000022    0.000022    0.000035   -0.000000    0.000000   -0.000000
   39.128032    0.000021    0.000021    0.000034   -0.000000    0.000000   -0.000000
   39.328689    0.000020    0.000020    0.000033   -0.000000    0.000000   -0.000000
   39.529345    0.000020    0.000020    0.000032   -0.000000    0.000000   -0.000000
   39.730002    0.000019    0.000019    0.000031   -0.000000    0.000000   -0.000000
   39.930658    0.000019    0.000019    0.000030   -0.000000    0.000000   -0.000000

  frequency dependent      REAL DIELECTRIC FUNCTION (independent particle, no local field effects) current-current
     E(ev)        X           Y           Z          XY          YZ          ZX
  --------------------------------------------------------------------------------------------------------------
    0.000000    6.177304    6.177304    1.387012    0.000004    0.000000    0.000000
    0.200657    2.925207    2.925207    1.387158    0.000016    0.000000    0.000000
    0.401313    2.075477    2.075477    1.387603    0.000027    0.000000    0.000000
    0.601970    1.933292    1.933292    1.388350    0.000023    0.000000    0.000000
    0.802626    1.903535    1.903535    1.389409    0.000031    0.000000    0.000000
    1.003283    1.903188    1.903188    1.390794    0.000038    0.000000    0.000000
    1.203939    1.900958    1.900958    1.392526    0.000028    0.000000    0.000000
    1.404596    1.895712    1.895712    1.394632    0.000044    0.000000    0.000000
    1.605253    1.903314    1.903314    1.397151   -0.000034    0.000000    0.000000
    1.805909    1.913569    1.913569    1.400141   -0.000364    0.000000    0.000000
    2.006566    1.923379    1.923379    1.403681   -0.000211    0.000000    0.000000
    2.207222    1.941119    1.941119    1.407902    0.000305    0.000000   -0.000000
    2.407879    1.962044    1.962044    1.413018    0.000622    0.000000   -0.000000
    2.608535    1.986573    1.986573    1.419379    0.000924    0.000000   -0.000000
    2.809192    2.003074    2.003074    1.427305    0.000556    0.000000   -0.000000
    3.009849    2.042272    2.042272    1.437928   -0.003898    0.000000    0.000000
    3.210505    2.058160    2.058160    1.451948   -0.009250    0.000000    0.000000
    3.411162    2.065791    2.065791    1.447123    0.011980    0.000000   -0.000000
    3.611818    1.947387    1.947387    1.436606    0.004645    0.000000   -0.000000
    3.812475    1.928096    1.928096    1.420580   -0.004138    0.000000   -0.000000
    4.013131    1.628745    1.628745    1.424235   -0.010248    0.000000   -0.000000
    4.213788    0.772459    0.772459    1.432484   -0.010330   -0.000000    0.000000
    4.414445    0.755081    0.755081    1.433834   -0.009123   -0.000000    0.000000
    4.615101    0.997088    0.997088    1.435442    0.006824    0.000000    0.000000
    4.815758    1.329592    1.329592    1.439299    0.029884   -0.000000    0.000000
    5.016414    1.342006    1.342006    1.445857    0.010782   -0.000000   -0.000000
    5.217071    1.076380    1.076380    1.446038   -0.034374   -0.000000   -0.000000
    5.417728    1.045851    1.045851    1.450289    0.028333    0.000000    0.000000
    5.618384    0.802238    0.802238    1.452507    0.015172    0.000000    0.000000
    5.819041    0.723870    0.723870    1.462321    0.031510    0.000000    0.000000
    6.019697   -0.075114   -0.075114    1.468715    0.007396    0.000000   -0.000000
    6.220354   -0.215681   -0.215681    1.476798   -0.023679    0.000000   -0.000000
    6.421010   -0.167702   -0.167702    1.489459   -0.047727    0.000000   -0.000000
    6.621667   -0.092873   -0.092872    1.503948   -0.039064    0.000000   -0.000000
    6.822324   -0.014864   -0.014864    1.519909   -0.001405    0.000000   -0.000000
    7.022980    0.061348    0.061348    1.537415    0.019006    0.000000    0.000000
    7.223637    0.132370    0.132370    1.556671    0.020574   -0.000000   -0.000000
    7.424293    0.196560    0.196560    1.577962    0.019404    0.000000   -0.000000
    7.624950    0.255842    0.255842    1.601660    0.011677    0.000000   -0.000000
    7.825606    0.311014    0.311014    1.628280    0.004273   -0.000000    0.000000
    8.026263    0.362937    0.362937    1.658480   -0.003948   -0.000000    0.000000
    8.226920    0.411310    0.411310    1.692998   -0.007108    0.000000    0.000000
    8.427576    0.453527    0.453527    1.732656   -0.007737   -0.000000    0.000000
    8.628233    0.488186    0.488186    1.778906   -0.004183   -0.000000    0.000000
    8.828889    0.521671    0.521671    1.834161    0.001725   -0.000000    0.000000
    9.029546    0.553837    0.553837    1.902083    0.005068   -0.000000    0.000000
    9.230202    0.584274    0.584274    1.988183    0.004066    0.000000    0.000000
    9.430859    0.610720    0.610720    2.102084    0.001029    0.000000    0.000000
    9.631516    0.635001    0.635001    2.265826    0.000301    0.000000   -0.000000
    9.832172    0.660631    0.660631    2.535204   -0.000196    0.000000   -0.000000
   10.032829    0.691844    0.691844    2.962348   -0.000556    0.000000   -0.000000
   10.233485    0.726123    0.726123    2.431450   -0.000709    0.000000   -0.000000
   10.434142    0.758091    0.758091    1.697898   -0.000650    0.000000   -0.000000
   10.634798    0.788725    0.788725    1.515274   -0.000731    0.000000   -0.000000
   10.835455    0.816816    0.816816    1.629192   -0.000743    0.000000    0.000000
   11.036112    0.839734    0.839734    1.701328   -0.000657    0.000000    0.000000
   11.236768    0.847477    0.847477    1.613996   -0.000196   -0.000000    0.000000
   11.437425    0.876659    0.876659    1.501558   -0.000172   -0.000000   -0.000000
   11.638081    0.903750    0.903750    1.365555   -0.000352   -0.000000   -0.000000
   11.838738    0.927185    0.927185    0.962180   -0.000430   -0.000000   -0.000000
   12.039394    0.943068    0.943068    0.760102   -0.000420   -0.000000   -0.000000
   12.240051    0.962847    0.962847    1.046637   -0.000520   -0.000000   -0.000000
   12.440708    0.974753    0.974753    1.305373   -0.000041    0.000000   -0.000000
   12.641364    0.975599    0.975599    0.949445    0.000606   -0.000000   -0.000000
   12.842021    0.981178    0.981178    0.644324    0.000359   -0.000000   -0.000000
   13.042677    0.998402    0.998402    0.851189   -0.000107    0.000000    0.000000
   13.243334    1.013772    1.013772    1.052708   -0.000117    0.000000    0.000000
   13.443991    1.026905    1.026905    1.119737   -0.000068    0.000000    0.000000
   13.644647    1.036414    1.036414    0.966943   -0.000043    0.000000    0.000000
   13.845304    1.042463    1.042463    0.897129    0.000582   -0.000000    0.000000
   14.045960    1.046842    1.046842    0.366840    0.000179    0.000000    0.000000
   14.246617    1.046444    1.046444   -0.077817   -0.000018   -0.000000    0.000000
   14.447273    1.042983    1.042983   -0.176572   -0.000033    0.000000   -0.000000
   14.647930    1.037147    1.037147   -0.273370   -0.000184   -0.000000   -0.000000
   14.848587    1.030213    1.030213   -0.115094   -0.000247   -0.000000   -0.000000
   15.049243    1.019385    1.019385    0.065322   -0.000266   -0.000000   -0.000000
   15.249900    1.003416    1.003416    0.189067   -0.000090   -0.000000   -0.000000
   15.450556    0.984309    0.984309    0.291661    0.000237   -0.000000   -0.000000
   15.651213    0.951644    0.951644    0.387645    0.000308   -0.000000    0.000000
   15.851869    0.895584    0.895584    0.461490    0.000429   -0.000000   -0.000000
   16.052526    0.834183    0.834183    0.402499    0.000220    0.000000   -0.000000
   16.253183    0.779764    0.779764    0.416014   -0.000076   -0.000000   -0.000000
   16.453839    0.739280    0.739280    0.463511   -0.000268   -0.000000   -0.000000
   16.654496    0.710689    0.710689    0.496256   -0.000106   -0.000000    0.000000
   16.855152    0.694273    0.694273    0.518600   -0.000073   -0.000000   -0.000000
   17.055809    0.683895    0.683895    0.542005    0.000052   -0.000000   -0.000000
   17.256465    0.678300    0.678300    0.565166   -0.000097   -0.000000   -0.000000
   17.457122    0.675520    0.675521    0.588754   -0.000106    0.000000   -0.000000
   17.657779    0.676056    0.676056    0.610830    0.000021   -0.000000   -0.000000
   17.858435    0.677806    0.677806    0.631560   -0.000003   -0.000000    0.000000
   18.059092    0.682249    0.682249    0.650724   -0.000005   -0.000000   -0.000000
   18.259748    0.687605    0.687605    0.668137   -0.000046   -0.000000   -0.000000
   18.460405    0.694601    0.694601    0.684979   -0.000104   -0.000000   -0.000000
   18.661061    0.702301    0.702301    0.700246   -0.000041    0.000000    0.000000
   18.861718    0.710910    0.710910    0.714025    0.000041   -0.000000    0.000000
   19.062375    0.720077    0.720077    0.725562    0.000003   -0.000000   -0.000000
   19.263031    0.729446    0.729446    0.732834    0.000048   -0.000000    0.000000
   19.463688    0.739193    0.739193    0.735372    0.000009   -0.000000   -0.000000
   19.664344    0.749334    0.749334    0.733069    0.000013   -0.000000   -0.000000
   19.865001    0.759108    0.759108    0.735638    0.000044   -0.000000   -0.000000
   20.065657    0.768346    0.768346    0.743160    0.000010   -0.000000   -0.000000
   20.266314    0.777038    0.777038    0.751121   -0.000079   -0.000000   -0.000000
   20.466971    0.785372    0.785372    0.759340   -0.000098   -0.000000   -0.000000
   20.667627    0.793259    0.793259    0.766733   -0.000107   -0.000000   -0.000000
   20.868284    0.800471    0.800471    0.772084   -0.000066    0.000000   -0.000000
   21.068940    0.807692    0.807692    0.775288   -0.000005    0.000000   -0.000000
   21.269597    0.814525    0.814525    0.776978    0.000045    0.000000   -0.000000
   21.470254    0.821011    0.821011    0.776196    0.000047   -0.000000   -0.000000
   21.670910    0.827090    0.827090    0.777109    0.000036   -0.000000   -0.000000
   21.871567    0.832897    0.832897    0.780057    0.000016   -0.000000   -0.000000
   22.072223    0.838349    0.838349    0.785068   -0.000007   -0.000000   -0.000000
   22.272880    0.843574    0.843574    0.791197    0.000004   -0.000000   -0.000000
   22.473536    0.848522    0.848522    0.797637   -0.000000   -0.000000   -0.000000
   22.674193    0.853276    0.853276    0.804150   -0.000014   -0.000000   -0.000000
   22.874850    0.857910    0.857910    0.810532   -0.000009   -0.000000   -0.000000
   23.075506    0.862343    0.862343    0.816662   -0.000002    0.000000   -0.000000
   23.276163    0.866526    0.866526    0.822658    0.000006   -0.000000   -0.000000
   23.476819    0.870418    0.870418    0.828458   -0.000001   -0.000000   -0.000000
   23.677476    0.874122    0.874122    0.834026   -0.000010   -0.000000    0.000000
   23.878132    0.877762    0.877762    0.839277   -0.000008   -0.000000   -0.000000
   24.078789    0.880861    0.880861    0.844255   -0.000008   -0.000000   -0.000000
   24.279446    0.883781    0.883781    0.849059   -0.000006   -0.000000   -0.000000
   24.480102    0.886565    0.886565    0.853424    0.000002   -0.000000   -0.000000
   24.680759    0.888975    0.888975    0.857432    0.000002   -0.000000   -0.000000
   24.881415    0.891250    0.891250    0.861300   -0.000004   -0.000000   -0.000000
   25.082072    0.893501    0.893501    0.864870    0.000001   -0.000000   -0.000000
   25.282728    0.895588    0.895588    0.867671    0.000005   -0.000000    0.000000
   25.483385    0.897446    0.897446    0.870073    0.000006    0.000000   -0.000000
   25.684042    0.899214    0.899214    0.872081    0.000006   -0.000000    0.000000
   25.884698    0.901090    0.901090    0.874990    0.000000   -0.000000   -0.000000
   26.085355    0.903193    0.903193    0.878348    0.000001   -0.000000   -0.000000
   26.286011    0.905373    0.905373    0.881515   -0.000003   -0.000000   -0.000000
   26.486668    0.907362    0.907362    0.884493   -0.000003   -0.000000   -0.000000
   26.687324    0.908986    0.908986    0.887560    0.000001   -0.000000   -0.000000
   26.887981    0.910597    0.910597    0.889524    0.000004   -0.000000   -0.000000
   27.088638    0.912192    0.912192    0.889372   -0.000000   -0.000000   -0.000000
   27.289294    0.913786    0.913786    0.891169   -0.000003   -0.000000    0.000000
   27.489951    0.915422    0.915422    0.894012   -0.000000   -0.000000   -0.000000
   27.690607    0.917012    0.917012    0.896426    0.000001   -0.000000   -0.000000
   27.891264    0.918519    0.918519    0.898263    0.000001   -0.000000   -0.000000
   28.091920    0.919958    0.919958    0.899560    0.000005   -0.000000    0.000000
   28.292577    0.921353    0.921353    0.900969    0.000004   -0.000000   -0.000000
   28.493234    0.922687    0.922687    0.902695    0.000001   -0.000000   -0.000000
   28.693890    0.923944    0.923944    0.904511   -0.000001   -0.000000   -0.000000
   28.894547    0.925162    0.925162    0.906300    0.000002   -0.000000   -0.000000
   29.095203    0.926375    0.926375    0.908013    0.000003   -0.000000   -0.000000
   29.295860    0.927610    0.927610    0.909706    0.000000   -0.000000   -0.000000
   29.496517    0.928861    0.928861    0.911388    0.000001   -0.000000   -0.000000
   29.697173    0.930113    0.930113    0.912792   -0.000001   -0.000000   -0.000000
   29.897830    0.931352    0.931352    0.913610   -0.000001   -0.000000   -0.000000
   30.098486    0.932569    0.932569    0.914941   -0.000000   -0.000000   -0.000000
   30.299143    0.933757    0.933757    0.916515    0.000001   -0.000000   -0.000000
   30.499799    0.934906    0.934906    0.918019    0.000001   -0.000000   -0.000000
   30.700456    0.936013    0.936013    0.919449    0.000000   -0.000000   -0.000000
   30.901113    0.937077    0.937077    0.920820    0.000000   -0.000000   -0.000000
   31.101769    0.938099    0.938099    0.922154   -0.000000   -0.000000   -0.000000
   31.302426    0.939087    0.939087    0.923466   -0.000000   -0.000000   -0.000000
   31.503082    0.940048    0.940048    0.924762   -0.000000   -0.000000   -0.000000
   31.703739    0.940988    0.940988    0.926036    0.000000   -0.000000   -0.000000
   31.904395    0.941905    0.941905    0.927276    0.000000   -0.000000   -0.000000
   32.105052    0.942799    0.942799    0.928475   -0.000000   -0.000000   -0.000000
   32.305709    0.943670    0.943670    0.929639    0.000000   -0.000000   -0.000000
   32.506365    0.944518    0.944518    0.930765    0.000000   -0.000000   -0.000000
   32.707022    0.945344    0.945344    0.931856   -0.000000   -0.000000   -0.000000
   32.907678    0.946149    0.946149    0.932916   -0.000000   -0.000000   -0.000000
   33.108335    0.946935    0.946935    0.933952   -0.000000   -0.000000   -0.000000
   33.308991    0.947702    0.947702    0.934961    0.000000   -0.000000   -0.000000
   33.509648    0.948449    0.948449    0.935941    0.000000   -0.000000   -0.000000
   33.710305    0.949177    0.949177    0.936892    0.000000   -0.000000   -0.000000
   33.910961    0.949887    0.949887    0.937819    0.000000   -0.000000   -0.000000
   34.111618    0.950581    0.950581    0.938721    0.000000   -0.000000   -0.000000
   34.312274    0.951259    0.951259    0.939600    0.000000   -0.000000   -0.000000
   34.512931    0.951921    0.951921    0.940458    0.000000   -0.000000   -0.000000
   34.713587    0.952569    0.952569    0.941296    0.000000   -0.000000   -0.000000
   34.914244    0.953202    0.953202    0.942114    0.000000   -0.000000   -0.000000
   35.114901    0.953822    0.953822    0.942912    0.000000   -0.000000   -0.000000
   35.315557    0.954428    0.954428    0.943693    0.000000   -0.000000   -0.000000
   35.516214    0.955021    0.955021    0.944456    0.000000   -0.000000   -0.000000
   35.716870    0.955601    0.955601    0.945202    0.000000   -0.000000   -0.000000
   35.917527    0.956170    0.956170    0.945931    0.000000   -0.000000   -0.000000
   36.118183    0.956727    0.956727    0.946645    0.000000   -0.000000   -0.000000
   36.318840    0.957272    0.957272    0.947344    0.000000   -0.000000   -0.000000
   36.519497    0.957807    0.957807    0.948027    0.000000   -0.000000   -0.000000
   36.720153    0.958330    0.958330    0.948697    0.000000   -0.000000   -0.000000
   36.920810    0.958844    0.958844    0.949352    0.000000   -0.000000   -0.000000
   37.121466    0.959347    0.959347    0.949994    0.000000   -0.000000   -0.000000
   37.322123    0.959841    0.959841    0.950623    0.000000   -0.000000   -0.000000
   37.522780    0.960325    0.960325    0.951240    0.000000   -0.000000   -0.000000
   37.723436    0.960799    0.960799    0.951844    0.000000   -0.000000   -0.000000
   37.924093    0.961265    0.961265    0.952436    0.000000   -0.000000   -0.000000
   38.124749    0.961722    0.961722    0.953017    0.000000   -0.000000   -0.000000
   38.325406    0.962170    0.962170    0.953586    0.000000   -0.000000   -0.000000
   38.526062    0.962611    0.962611    0.954145    0.000000   -0.000000   -0.000000
   38.726719    0.963043    0.963043    0.954692    0.000000   -0.000000   -0.000000
   38.927376    0.963467    0.963467    0.955230    0.000000   -0.000000   -0.000000
   39.128032    0.963884    0.963884    0.955757    0.000000   -0.000000   -0.000000
   39.328689    0.964293    0.964293    0.956275    0.000000   -0.000000   -0.000000
   39.529345    0.964695    0.964695    0.956783    0.000000   -0.000000   -0.000000
   39.730002    0.965089    0.965089    0.957281    0.000000   -0.000000   -0.000000
   39.930658    0.965477    0.965477    0.957771    0.000000   -0.000000   -0.000000
 
 The outermost node in the dielectric function lies at epsilon=  15.0


--------------------------------------------------------------------------------------------------------


    OPTICS:  cpu time     69.1069: real time     70.6164
    4ORBIT:  cpu time      0.0000: real time      0.0000

 total amount of memory used by VASP MPI-rank0   171060. kBytes
=======================================================================

   base      :      30000. kBytes
   nonl-proj :      36366. kBytes
   fftplans  :       4325. kBytes
   grid      :       7403. kBytes
   one-center:         15. kBytes
   wavefun   :      92951. kBytes
 
  
  
 General timing and accounting informations for this job:
 ========================================================
  
                  Total CPU time used (sec):     1788.164
                            User time (sec):     1726.879
                          System time (sec):       61.284
                         Elapsed time (sec):     2077.391
  
                   Maximum memory used (kb):     2244332.
                   Average memory used (kb):          N/A
  
                          Minor page faults:       114602
                          Major page faults:            0
                 Voluntary context switches:      1396635
