<?xml version="1.0" encoding="ISO-8859-1"?>
<modeling>
 <generator>
  <i name="program" type="string">vasp </i>
  <i name="version" type="string">6.3.0  </i>
  <i name="subversion" type="string">20Jan22 (build May 12 2022 16:34:25) complex                          parallel </i>
  <i name="platform" type="string">GNU/Linux-IFC-IntelMPI </i>
  <i name="date" type="string">2022 11 16 </i>
  <i name="time" type="string">04:24:24 </i>
 </generator>
 <incar>
  <i type="string" name="SYSTEM">BN/gr</i>
  <i type="int" name="ISTART">     1</i>
  <i type="string" name="PREC">Accurate</i>
  <i type="string" name="ALGO">Normal</i>
  <i type="int" name="NELM">   100</i>
  <i type="int" name="NELMIN">     2</i>
  <i name="EDIFF">      0.00000001</i>
  <i name="ENCUT">    400.00000000</i>
  <i type="int" name="NBANDS">  1072</i>
  <i type="int" name="NEDOS">  2000</i>
  <i type="int" name="ISMEAR">     0</i>
  <i name="SIGMA">      0.05000000</i>
  <i type="logical" name="LWAVE"> F  </i>
  <i type="logical" name="LCHARG"> F  </i>
  <i type="logical" name="LOPTICS"> T  </i>
  <i name="CSHIFT">      0.10000000</i>
  <i type="int" name="IVDW">    11</i>
 </incar>
 <primitive_cell>
  <structure name="primitive_cell" >
   <crystal>
    <varray name="basis" >
     <v>      20.19326000       0.00000000       0.00000000 </v>
     <v>     -10.09663000      17.48787600       0.00000000 </v>
     <v>       0.00000000       0.00000000      21.00000000 </v>
    </varray>
    <i name="volume">   7415.88176523 </i>
    <varray name="rec_basis" >
     <v>       0.04952147       0.02859124       0.00000000 </v>
     <v>       0.00000000       0.05718247       0.00000000 </v>
     <v>       0.00000000       0.00000000       0.04761905 </v>
    </varray>
   </crystal>
   <varray name="positions" >
    <v>       0.09451827       0.59205144       0.50001764 </v>
    <v>       0.12439821       0.72637121       0.50001694 </v>
    <v>       0.15421517       0.86068494       0.49999232 </v>
    <v>       0.18407737       0.99502028       0.50004584 </v>
    <v>       0.07960517       0.02489713       0.50000662 </v>
    <v>       0.10945490       0.15920851       0.50003420 </v>
    <v>       0.13931506       0.29353023       0.49999232 </v>
    <v>       0.16913278       0.42784833       0.50002082 </v>
    <v>       0.19901311       0.56218576       0.50003531 </v>
    <v>       0.22884744       0.69650302       0.50003045 </v>
    <v>       0.25871455       0.83086722       0.50002082 </v>
    <v>       0.28855306       0.96518101       0.50003329 </v>
    <v>       0.21392638       0.12933921       0.50002368 </v>
    <v>       0.24378303       0.26368666       0.50003197 </v>
    <v>       0.27362879       0.39802701       0.50001694 </v>
    <v>       0.30349698       0.53234343       0.50003045 </v>
    <v>       0.33333300       0.66666700       0.49998682 </v>
    <v>       0.36317265       0.80098689       0.50003531 </v>
    <v>       0.39304008       0.93531135       0.50001904 </v>
    <v>       0.31842890       0.09950913       0.50000164 </v>
    <v>       0.34823826       0.23382185       0.50000271 </v>
    <v>       0.37811807       0.36815409       0.50003892 </v>
    <v>       0.40794856       0.50246783       0.50001764 </v>
    <v>       0.43781424       0.63682735       0.50003531 </v>
    <v>       0.46765657       0.77115256       0.50003045 </v>
    <v>       0.49753217       0.90548173       0.50001764 </v>
    <v>       0.42287565       0.06964121       0.50003092 </v>
    <v>       0.45274073       0.20399868       0.50002544 </v>
    <v>       0.48259079       0.33831265       0.50003899 </v>
    <v>       0.51245009       0.47264702       0.49999235 </v>
    <v>       0.54227227       0.60695992       0.50001904 </v>
    <v>       0.57215167       0.74128545       0.50002082 </v>
    <v>       0.60197299       0.87560179       0.50001694 </v>
    <v>       0.63184591       0.00996398       0.50003892 </v>
    <v>       0.52735298       0.03980307       0.49999235 </v>
    <v>       0.55721687       0.17412455       0.50003819 </v>
    <v>       0.58706046       0.30843835       0.50000640 </v>
    <v>       0.61690767       0.44278313       0.50003819 </v>
    <v>       0.64676557       0.57712435       0.50003092 </v>
    <v>       0.67662795       0.71144694       0.50003329 </v>
    <v>       0.70646977       0.84578483       0.49999232 </v>
    <v>       0.73631334       0.98009738       0.50003197 </v>
    <v>       0.66168735       0.14427814       0.50003899 </v>
    <v>       0.69156165       0.27862211       0.50000640 </v>
    <v>       0.72137789       0.41293954       0.50000640 </v>
    <v>       0.75125794       0.54725927       0.50002544 </v>
    <v>       0.78108123       0.68157110       0.50000164 </v>
    <v>       0.81094291       0.81592263       0.50004584 </v>
    <v>       0.84079149       0.95024639       0.50003420 </v>
    <v>       0.76617815       0.11441641       0.50000271 </v>
    <v>       0.79600132       0.24874206       0.50002544 </v>
    <v>       0.82587545       0.38309233       0.50003819 </v>
    <v>       0.85572186       0.51740921       0.50003899 </v>
    <v>       0.88558359       0.65176174       0.50000271 </v>
    <v>       0.91541284       0.78607362       0.50002368 </v>
    <v>       0.94529196       0.92039483       0.50000662 </v>
    <v>       0.87066079       0.08458716       0.50002368 </v>
    <v>       0.90049087       0.21891877       0.50000164 </v>
    <v>       0.93035879       0.35323443       0.50003092 </v>
    <v>       0.96019693       0.48754991       0.49999235 </v>
    <v>       0.99003602       0.62188193       0.50003892 </v>
    <v>       0.01990262       0.75621697       0.50003197 </v>
    <v>       0.04975361       0.89054510       0.50003420 </v>
    <v>       0.97510287       0.05470804       0.50000662 </v>
    <v>       0.00497972       0.18905709       0.50004584 </v>
    <v>       0.03481899       0.32337205       0.50003329 </v>
    <v>       0.06468865       0.45772773       0.50001904 </v>
    <v>       0.06964939       0.64676852       0.49999833 </v>
    <v>       0.09950144       0.78109088       0.49998131 </v>
    <v>       0.12935180       0.91542201       0.49999259 </v>
    <v>       0.15920360       0.04974967       0.49999454 </v>
    <v>       0.05472451       0.07960628       0.49998718 </v>
    <v>       0.08457799       0.21392979       0.49999259 </v>
    <v>       0.11442361       0.34825410       0.49998505 </v>
    <v>       0.14427954       0.48258833       0.49999141 </v>
    <v>       0.17412732       0.61691281       0.50000828 </v>
    <v>       0.20398600       0.75124556       0.49999981 </v>
    <v>       0.23383049       0.88557639       0.49998505 </v>
    <v>       0.26368242       0.01990132       0.50000125 </v>
    <v>       0.18905504       0.18407875       0.50001530 </v>
    <v>       0.21890912       0.31841156       0.49998131 </v>
    <v>       0.24875444       0.45274044       0.49999981 </v>
    <v>       0.27860892       0.58706277       0.49998502 </v>
    <v>       0.30845385       0.72139108       0.49998502 </v>
    <v>       0.33830880       0.85572046       0.49999141 </v>
    <v>       0.36815669       0.99004583       0.50001066 </v>
    <v>       0.29352983       0.15422507       0.49997625 </v>
    <v>       0.32338177       0.28855799       0.49999105 </v>
    <v>       0.35323148       0.42288087       0.49999833 </v>
    <v>       0.38308719       0.55721451       0.50000828 </v>
    <v>       0.41293723       0.69154615       0.49998502 </v>
    <v>       0.44278549       0.82587268       0.50000828 </v>
    <v>       0.47263813       0.96019740       0.49997601 </v>
    <v>       0.39801561       0.12438123       0.49999004 </v>
    <v>       0.42785994       0.25871015       0.49999876 </v>
    <v>       0.45771378       0.39303527       0.49999589 </v>
    <v>       0.48755927       0.52736187       0.49997601 </v>
    <v>       0.51741167       0.66169120       0.49999141 </v>
    <v>       0.54725956       0.79601400       0.49999981 </v>
    <v>       0.57711913       0.93035061       0.49999833 </v>
    <v>       0.60696473       0.06467951       0.49999589 </v>
    <v>       0.50248506       0.09452726       0.49998748 </v>
    <v>       0.53233689       0.22885200       0.49999161 </v>
    <v>       0.56218773       0.36318153       0.50000788 </v>
    <v>       0.59204320       0.49751494       0.49998748 </v>
    <v>       0.62188914       0.63184331       0.50001066 </v>
    <v>       0.65174590       0.76616951       0.49998505 </v>
    <v>       0.68158844       0.90049856       0.49998131 </v>
    <v>       0.71144201       0.03482377       0.49999105 </v>
    <v>       0.63681847       0.19900620       0.50000788 </v>
    <v>       0.66666700       0.33333300       0.49997191 </v>
    <v>       0.69651411       0.46766311       0.49999161 </v>
    <v>       0.72636562       0.60198439       0.49999004 </v>
    <v>       0.75621990       0.73631758       0.50000125 </v>
    <v>       0.78607021       0.87064820       0.49999259 </v>
    <v>       0.81592125       0.00497629       0.50001530 </v>
    <v>       0.74128985       0.16914879       0.49999876 </v>
    <v>       0.77114800       0.30348589       0.49999161 </v>
    <v>       0.80099380       0.43781227       0.50000788 </v>
    <v>       0.83085121       0.57214006       0.49999876 </v>
    <v>       0.86069524       0.70647017       0.49997625 </v>
    <v>       0.89054607       0.84079640       0.49999454 </v>
    <v>       0.92039372       0.97511823       0.49998718 </v>
    <v>       0.84577493       0.13930476       0.49997625 </v>
    <v>       0.87561877       0.27363438       0.49999004 </v>
    <v>       0.90547274       0.40795680       0.49998748 </v>
    <v>       0.93532049       0.54228622       0.49999589 </v>
    <v>       0.96517623       0.67661823       0.49999105 </v>
    <v>       0.99502371       0.81094496       0.50001530 </v>
    <v>       0.02488177       0.94527549       0.49998718 </v>
    <v>       0.95025033       0.10945393       0.49999454 </v>
    <v>       0.98009868       0.24378010       0.50000125 </v>
    <v>       0.00995417       0.37811086       0.50001066 </v>
    <v>       0.03980260       0.51244073       0.49997601 </v>
    <v>       0.02983731       0.89551914       0.33331639 </v>
    <v>       0.05971059       0.79106057       0.33332668 </v>
    <v>       0.16418345       0.92537461       0.33333019 </v>
    <v>       0.08954552       0.68655621       0.33332155 </v>
    <v>       0.19402360       0.82088965       0.33333781 </v>
    <v>       0.29851488       0.95522061       0.33331218 </v>
    <v>       0.01491142       0.44775366       0.33333223 </v>
    <v>       0.11941361       0.58208694       0.33332023 </v>
    <v>       0.22387464       0.71642445       0.33331466 </v>
    <v>       0.32836022       0.85074760       0.33332542 </v>
    <v>       0.43284224       0.98508858       0.33333223 </v>
    <v>       0.04477939       0.34329527       0.33331218 </v>
    <v>       0.14925240       0.47761262       0.33332542 </v>
    <v>       0.25373475       0.61195013       0.33333331 </v>
    <v>       0.35821538       0.74626525       0.33333331 </v>
    <v>       0.46267333       0.88058639       0.33332023 </v>
    <v>       0.07462539       0.23880884       0.33333019 </v>
    <v>       0.17911035       0.37313394       0.33333781 </v>
    <v>       0.28357555       0.50745019       0.33331466 </v>
    <v>       0.38804987       0.64178462       0.33333331 </v>
    <v>       0.49254981       0.77612536       0.33331466 </v>
    <v>       0.59701069       0.91045448       0.33332155 </v>
    <v>       0.00000000       0.00000000       0.33334019 </v>
    <v>       0.10448086       0.13431717       0.33331639 </v>
    <v>       0.20893943       0.26865103       0.33332668 </v>
    <v>       0.31344379       0.40298931       0.33332155 </v>
    <v>       0.41791306       0.53732667       0.33332023 </v>
    <v>       0.52238738       0.67163978       0.33332542 </v>
    <v>       0.62686606       0.80597640       0.33333781 </v>
    <v>       0.73134897       0.94028941       0.33332668 </v>
    <v>       0.13433197       0.02985158       0.33332556 </v>
    <v>       0.23881447       0.16419574       0.33332255 </v>
    <v>       0.34328500       0.29850550       0.33332628 </v>
    <v>       0.44775502       0.43283611       0.33333439 </v>
    <v>       0.55224634       0.56715776       0.33333223 </v>
    <v>       0.65670473       0.70148512       0.33331218 </v>
    <v>       0.76119116       0.83581655       0.33333019 </v>
    <v>       0.86568283       0.97016269       0.33331639 </v>
    <v>       0.26864761       0.05969510       0.33332738 </v>
    <v>       0.37313674       0.19402428       0.33333718 </v>
    <v>       0.47761121       0.32835266       0.33330812 </v>
    <v>       0.58207985       0.46268335       0.33332780 </v>
    <v>       0.68657865       0.59702592       0.33332174 </v>
    <v>       0.79104848       0.73135239       0.33332738 </v>
    <v>       0.89551861       0.86566803       0.33332556 </v>
    <v>       0.40297408       0.08955272       0.33332174 </v>
    <v>       0.50746955       0.22388676       0.33332424 </v>
    <v>       0.61194683       0.35822229       0.33332957 </v>
    <v>       0.71641721       0.49253045       0.33332424 </v>
    <v>       0.82088755       0.62686326       0.33333718 </v>
    <v>       0.92538127       0.76118553       0.33332255 </v>
    <v>       0.53731665       0.11939651       0.33332780 </v>
    <v>       0.64177771       0.25372454       0.33332957 </v>
    <v>       0.74627546       0.38805317       0.33332957 </v>
    <v>       0.85074145       0.52238879       0.33330812 </v>
    <v>       0.95522151       0.65671500       0.33332628 </v>
    <v>       0.56716389       0.01491891       0.33333439 </v>
    <v>       0.67164734       0.14925855       0.33330812 </v>
    <v>       0.77611324       0.28358279       0.33332424 </v>
    <v>       0.88060349       0.41792015       0.33332780 </v>
    <v>       0.98508109       0.55224498       0.33333439 </v>
    <v>       0.70149450       0.04477849       0.33332628 </v>
    <v>       0.80597572       0.17911245       0.33333718 </v>
    <v>       0.91044728       0.31342135       0.33332174 </v>
    <v>       0.83580426       0.07461873       0.33332255 </v>
    <v>       0.94030490       0.20895152       0.33332738 </v>
    <v>       0.97014842       0.10448139       0.33332556 </v>
    <v>       0.08458493       0.87064681       0.33332942 </v>
    <v>       0.11442334       0.76617668       0.33333295 </v>
    <v>       0.21890939       0.90049746       0.33333620 </v>
    <v>       0.14427933       0.66169356       0.33332846 </v>
    <v>       0.24875343       0.79600722       0.33331836 </v>
    <v>       0.35322251       0.93034557       0.33332103 </v>
    <v>       0.06965443       0.42287694       0.33332103 </v>
    <v>       0.17411802       0.55720997       0.33331117 </v>
    <v>       0.27861438       0.69154596       0.33333480 </v>
    <v>       0.38309194       0.82588198       0.33331117 </v>
    <v>       0.48755880       0.96020037       0.33334003 </v>
    <v>       0.09950254       0.31841293       0.33333620 </v>
    <v>       0.20399278       0.45274621       0.33331836 </v>
    <v>       0.30845404       0.58706842       0.33333480 </v>
    <v>       0.41293158       0.72138562       0.33333480 </v>
    <v>       0.51741423       0.85572067       0.33332846 </v>
    <v>       0.12935319       0.21393812       0.33332942 </v>
    <v>       0.23382332       0.34824666       0.33333295 </v>
    <v>       0.33830644       0.48258577       0.33332846 </v>
    <v>       0.44279003       0.61690806       0.33331117 </v>
    <v>       0.54725379       0.75124657       0.33331836 </v>
    <v>       0.65175334       0.88557666       0.33333295 </v>
    <v>       0.05471940       0.97511226       0.33333000 </v>
    <v>       0.15919586       0.10944811       0.33332590 </v>
    <v>       0.26369109       0.24377698       0.33332076 </v>
    <v>       0.36815260       0.37811462       0.33330763 </v>
    <v>       0.47264157       0.51244120       0.33334003 </v>
    <v>       0.57712306       0.64677749       0.33332103 </v>
    <v>       0.68158707       0.78109061       0.33333620 </v>
    <v>       0.78606188       0.91541507       0.33332942 </v>
    <v>       0.18905663       0.00498096       0.33330241 </v>
    <v>       0.29353044       0.13930834       0.33333938 </v>
    <v>       0.39801912       0.27363821       0.33332816 </v>
    <v>       0.50248629       0.40795898       0.33333239 </v>
    <v>       0.60695408       0.54227643       0.33332606 </v>
    <v>       0.71144395       0.67661560       0.33332921 </v>
    <v>       0.81592433       0.81094337       0.33330241 </v>
    <v>       0.92039286       0.94528060       0.33333000 </v>
    <v>       0.32338440       0.03482835       0.33332921 </v>
    <v>       0.42785160       0.16913885       0.33332050 </v>
    <v>       0.53233250       0.30348203       0.33332762 </v>
    <v>       0.63682780       0.43781106       0.33331279 </v>
    <v>       0.74128825       0.57214840       0.33332050 </v>
    <v>       0.84577789       0.70646956       0.33333938 </v>
    <v>       0.95025224       0.84080414       0.33332590 </v>
    <v>       0.45772357       0.06467865       0.33332606 </v>
    <v>       0.56218894       0.19901674       0.33331279 </v>
    <v>       0.66666700       0.33333300       0.33334288 </v>
    <v>       0.77114853       0.46766750       0.33332762 </v>
    <v>       0.87561910       0.60198088       0.33332816 </v>
    <v>       0.98008689       0.73630891       0.33332076 </v>
    <v>       0.59204102       0.09452630       0.33333239 </v>
    <v>       0.69651797       0.22885147       0.33332762 </v>
    <v>       0.80098326       0.36317220       0.33331279 </v>
    <v>       0.90547370       0.49751371       0.33333239 </v>
    <v>       0.00996202       0.63184740       0.33330763 </v>
    <v>       0.62188538       0.99003798       0.33330763 </v>
    <v>       0.72636179       0.12438090       0.33332816 </v>
    <v>       0.83086115       0.25871175       0.33332050 </v>
    <v>       0.93532135       0.39304592       0.33332606 </v>
    <v>       0.03979963       0.52735843       0.33334003 </v>
    <v>       0.75622302       0.01991311       0.33332076 </v>
    <v>       0.86069166       0.15422211       0.33333938 </v>
    <v>       0.96517165       0.28855605       0.33332921 </v>
    <v>       0.89055189       0.04974776       0.33332590 </v>
    <v>       0.99501904       0.18407567       0.33330241 </v>
    <v>       0.02488774       0.07960714       0.33333000 </v>
   </varray>
  </structure>
  <varray name="primitive_index" >
   <v type="int" >        1 </v>
   <v type="int" >        2 </v>
   <v type="int" >        3 </v>
   <v type="int" >        4 </v>
   <v type="int" >        5 </v>
   <v type="int" >        6 </v>
   <v type="int" >        7 </v>
   <v type="int" >        8 </v>
   <v type="int" >        9 </v>
   <v type="int" >       10 </v>
   <v type="int" >       11 </v>
   <v type="int" >       12 </v>
   <v type="int" >       13 </v>
   <v type="int" >       14 </v>
   <v type="int" >       15 </v>
   <v type="int" >       16 </v>
   <v type="int" >       17 </v>
   <v type="int" >       18 </v>
   <v type="int" >       19 </v>
   <v type="int" >       20 </v>
   <v type="int" >       21 </v>
   <v type="int" >       22 </v>
   <v type="int" >       23 </v>
   <v type="int" >       24 </v>
   <v type="int" >       25 </v>
   <v type="int" >       26 </v>
   <v type="int" >       27 </v>
   <v type="int" >       28 </v>
   <v type="int" >       29 </v>
   <v type="int" >       30 </v>
   <v type="int" >       31 </v>
   <v type="int" >       32 </v>
   <v type="int" >       33 </v>
   <v type="int" >       34 </v>
   <v type="int" >       35 </v>
   <v type="int" >       36 </v>
   <v type="int" >       37 </v>
   <v type="int" >       38 </v>
   <v type="int" >       39 </v>
   <v type="int" >       40 </v>
   <v type="int" >       41 </v>
   <v type="int" >       42 </v>
   <v type="int" >       43 </v>
   <v type="int" >       44 </v>
   <v type="int" >       45 </v>
   <v type="int" >       46 </v>
   <v type="int" >       47 </v>
   <v type="int" >       48 </v>
   <v type="int" >       49 </v>
   <v type="int" >       50 </v>
   <v type="int" >       51 </v>
   <v type="int" >       52 </v>
   <v type="int" >       53 </v>
   <v type="int" >       54 </v>
   <v type="int" >       55 </v>
   <v type="int" >       56 </v>
   <v type="int" >       57 </v>
   <v type="int" >       58 </v>
   <v type="int" >       59 </v>
   <v type="int" >       60 </v>
   <v type="int" >       61 </v>
   <v type="int" >       62 </v>
   <v type="int" >       63 </v>
   <v type="int" >       64 </v>
   <v type="int" >       65 </v>
   <v type="int" >       66 </v>
   <v type="int" >       67 </v>
   <v type="int" >       68 </v>
   <v type="int" >       69 </v>
   <v type="int" >       70 </v>
   <v type="int" >       71 </v>
   <v type="int" >       72 </v>
   <v type="int" >       73 </v>
   <v type="int" >       74 </v>
   <v type="int" >       75 </v>
   <v type="int" >       76 </v>
   <v type="int" >       77 </v>
   <v type="int" >       78 </v>
   <v type="int" >       79 </v>
   <v type="int" >       80 </v>
   <v type="int" >       81 </v>
   <v type="int" >       82 </v>
   <v type="int" >       83 </v>
   <v type="int" >       84 </v>
   <v type="int" >       85 </v>
   <v type="int" >       86 </v>
   <v type="int" >       87 </v>
   <v type="int" >       88 </v>
   <v type="int" >       89 </v>
   <v type="int" >       90 </v>
   <v type="int" >       91 </v>
   <v type="int" >       92 </v>
   <v type="int" >       93 </v>
   <v type="int" >       94 </v>
   <v type="int" >       95 </v>
   <v type="int" >       96 </v>
   <v type="int" >       97 </v>
   <v type="int" >       98 </v>
   <v type="int" >       99 </v>
   <v type="int" >      100 </v>
   <v type="int" >      101 </v>
   <v type="int" >      102 </v>
   <v type="int" >      103 </v>
   <v type="int" >      104 </v>
   <v type="int" >      105 </v>
   <v type="int" >      106 </v>
   <v type="int" >      107 </v>
   <v type="int" >      108 </v>
   <v type="int" >      109 </v>
   <v type="int" >      110 </v>
   <v type="int" >      111 </v>
   <v type="int" >      112 </v>
   <v type="int" >      113 </v>
   <v type="int" >      114 </v>
   <v type="int" >      115 </v>
   <v type="int" >      116 </v>
   <v type="int" >      117 </v>
   <v type="int" >      118 </v>
   <v type="int" >      119 </v>
   <v type="int" >      120 </v>
   <v type="int" >      121 </v>
   <v type="int" >      122 </v>
   <v type="int" >      123 </v>
   <v type="int" >      124 </v>
   <v type="int" >      125 </v>
   <v type="int" >      126 </v>
   <v type="int" >      127 </v>
   <v type="int" >      128 </v>
   <v type="int" >      129 </v>
   <v type="int" >      130 </v>
   <v type="int" >      131 </v>
   <v type="int" >      132 </v>
   <v type="int" >      133 </v>
   <v type="int" >      134 </v>
   <v type="int" >      135 </v>
   <v type="int" >      136 </v>
   <v type="int" >      137 </v>
   <v type="int" >      138 </v>
   <v type="int" >      139 </v>
   <v type="int" >      140 </v>
   <v type="int" >      141 </v>
   <v type="int" >      142 </v>
   <v type="int" >      143 </v>
   <v type="int" >      144 </v>
   <v type="int" >      145 </v>
   <v type="int" >      146 </v>
   <v type="int" >      147 </v>
   <v type="int" >      148 </v>
   <v type="int" >      149 </v>
   <v type="int" >      150 </v>
   <v type="int" >      151 </v>
   <v type="int" >      152 </v>
   <v type="int" >      153 </v>
   <v type="int" >      154 </v>
   <v type="int" >      155 </v>
   <v type="int" >      156 </v>
   <v type="int" >      157 </v>
   <v type="int" >      158 </v>
   <v type="int" >      159 </v>
   <v type="int" >      160 </v>
   <v type="int" >      161 </v>
   <v type="int" >      162 </v>
   <v type="int" >      163 </v>
   <v type="int" >      164 </v>
   <v type="int" >      165 </v>
   <v type="int" >      166 </v>
   <v type="int" >      167 </v>
   <v type="int" >      168 </v>
   <v type="int" >      169 </v>
   <v type="int" >      170 </v>
   <v type="int" >      171 </v>
   <v type="int" >      172 </v>
   <v type="int" >      173 </v>
   <v type="int" >      174 </v>
   <v type="int" >      175 </v>
   <v type="int" >      176 </v>
   <v type="int" >      177 </v>
   <v type="int" >      178 </v>
   <v type="int" >      179 </v>
   <v type="int" >      180 </v>
   <v type="int" >      181 </v>
   <v type="int" >      182 </v>
   <v type="int" >      183 </v>
   <v type="int" >      184 </v>
   <v type="int" >      185 </v>
   <v type="int" >      186 </v>
   <v type="int" >      187 </v>
   <v type="int" >      188 </v>
   <v type="int" >      189 </v>
   <v type="int" >      190 </v>
   <v type="int" >      191 </v>
   <v type="int" >      192 </v>
   <v type="int" >      193 </v>
   <v type="int" >      194 </v>
   <v type="int" >      195 </v>
   <v type="int" >      196 </v>
   <v type="int" >      197 </v>
   <v type="int" >      198 </v>
   <v type="int" >      199 </v>
   <v type="int" >      200 </v>
   <v type="int" >      201 </v>
   <v type="int" >      202 </v>
   <v type="int" >      203 </v>
   <v type="int" >      204 </v>
   <v type="int" >      205 </v>
   <v type="int" >      206 </v>
   <v type="int" >      207 </v>
   <v type="int" >      208 </v>
   <v type="int" >      209 </v>
   <v type="int" >      210 </v>
   <v type="int" >      211 </v>
   <v type="int" >      212 </v>
   <v type="int" >      213 </v>
   <v type="int" >      214 </v>
   <v type="int" >      215 </v>
   <v type="int" >      216 </v>
   <v type="int" >      217 </v>
   <v type="int" >      218 </v>
   <v type="int" >      219 </v>
   <v type="int" >      220 </v>
   <v type="int" >      221 </v>
   <v type="int" >      222 </v>
   <v type="int" >      223 </v>
   <v type="int" >      224 </v>
   <v type="int" >      225 </v>
   <v type="int" >      226 </v>
   <v type="int" >      227 </v>
   <v type="int" >      228 </v>
   <v type="int" >      229 </v>
   <v type="int" >      230 </v>
   <v type="int" >      231 </v>
   <v type="int" >      232 </v>
   <v type="int" >      233 </v>
   <v type="int" >      234 </v>
   <v type="int" >      235 </v>
   <v type="int" >      236 </v>
   <v type="int" >      237 </v>
   <v type="int" >      238 </v>
   <v type="int" >      239 </v>
   <v type="int" >      240 </v>
   <v type="int" >      241 </v>
   <v type="int" >      242 </v>
   <v type="int" >      243 </v>
   <v type="int" >      244 </v>
   <v type="int" >      245 </v>
   <v type="int" >      246 </v>
   <v type="int" >      247 </v>
   <v type="int" >      248 </v>
   <v type="int" >      249 </v>
   <v type="int" >      250 </v>
   <v type="int" >      251 </v>
   <v type="int" >      252 </v>
   <v type="int" >      253 </v>
   <v type="int" >      254 </v>
   <v type="int" >      255 </v>
   <v type="int" >      256 </v>
   <v type="int" >      257 </v>
   <v type="int" >      258 </v>
   <v type="int" >      259 </v>
   <v type="int" >      260 </v>
   <v type="int" >      261 </v>
   <v type="int" >      262 </v>
   <v type="int" >      263 </v>
   <v type="int" >      264 </v>
   <v type="int" >      265 </v>
   <v type="int" >      266 </v>
   <v type="int" >      267 </v>
   <v type="int" >      268 </v>
  </varray>
 </primitive_cell>
 <kpoints>
  <generation param="Gamma">
   <v type="int" name="divisions">      18       18        1 </v>
   <v name="usershift">      0.00000000       0.00000000       0.00000000 </v>
   <v name="genvec1">      0.05555556       0.00000000       0.00000000 </v>
   <v name="genvec2">      0.00000000       0.05555556       0.00000000 </v>
   <v name="genvec3">      0.00000000       0.00000000       1.00000000 </v>
   <v name="shift">      0.00000000       0.00000000       0.00000000 </v>
  </generation>
  <varray name="kpointlist" >
   <v>       0.00000000       0.00000000       0.00000000 </v>
   <v>       0.05555556      -0.00000000       0.00000000 </v>
   <v>       0.11111111      -0.00000000       0.00000000 </v>
   <v>       0.16666667       0.00000000       0.00000000 </v>
   <v>       0.22222222       0.00000000       0.00000000 </v>
   <v>       0.27777778      -0.00000000       0.00000000 </v>
   <v>       0.33333333      -0.00000000       0.00000000 </v>
   <v>       0.38888889       0.00000000       0.00000000 </v>
   <v>       0.44444444       0.00000000       0.00000000 </v>
   <v>       0.50000000      -0.00000000       0.00000000 </v>
   <v>       0.05555556       0.05555556       0.00000000 </v>
   <v>       0.11111111       0.05555556       0.00000000 </v>
   <v>      -0.11111111       0.16666667       0.00000000 </v>
   <v>       0.16666667       0.05555556       0.00000000 </v>
   <v>      -0.16666667       0.22222222       0.00000000 </v>
   <v>       0.22222222       0.05555556       0.00000000 </v>
   <v>      -0.22222222       0.27777778       0.00000000 </v>
   <v>       0.27777778       0.05555556       0.00000000 </v>
   <v>      -0.27777778       0.33333333       0.00000000 </v>
   <v>       0.33333333       0.05555556       0.00000000 </v>
   <v>      -0.33333333       0.38888889       0.00000000 </v>
   <v>       0.38888889       0.05555556       0.00000000 </v>
   <v>      -0.38888889       0.44444444       0.00000000 </v>
   <v>       0.44444444       0.05555556       0.00000000 </v>
   <v>      -0.44444444       0.50000000       0.00000000 </v>
   <v>       0.11111111       0.11111111       0.00000000 </v>
   <v>       0.16666667       0.11111111       0.00000000 </v>
   <v>      -0.16666667       0.27777778       0.00000000 </v>
   <v>       0.22222222       0.11111111       0.00000000 </v>
   <v>      -0.22222222       0.33333333       0.00000000 </v>
   <v>       0.27777778       0.11111111       0.00000000 </v>
   <v>      -0.27777778       0.38888889       0.00000000 </v>
   <v>       0.33333333       0.11111111       0.00000000 </v>
   <v>      -0.33333333       0.44444444       0.00000000 </v>
   <v>       0.38888889       0.11111111       0.00000000 </v>
   <v>      -0.38888889       0.50000000       0.00000000 </v>
   <v>       0.44444444       0.11111111       0.00000000 </v>
   <v>       0.16666667       0.16666667       0.00000000 </v>
   <v>       0.22222222       0.16666667       0.00000000 </v>
   <v>      -0.22222222       0.38888889       0.00000000 </v>
   <v>       0.27777778       0.16666667       0.00000000 </v>
   <v>      -0.27777778       0.44444444       0.00000000 </v>
   <v>       0.33333333       0.16666667       0.00000000 </v>
   <v>      -0.33333333       0.50000000       0.00000000 </v>
   <v>       0.38888889       0.16666667       0.00000000 </v>
   <v>      -0.38888889      -0.44444444       0.00000000 </v>
   <v>       0.22222222       0.22222222       0.00000000 </v>
   <v>       0.27777778       0.22222222       0.00000000 </v>
   <v>      -0.27777778       0.50000000       0.00000000 </v>
   <v>       0.33333333       0.22222222       0.00000000 </v>
   <v>      -0.33333333      -0.44444444       0.00000000 </v>
   <v>       0.38888889       0.22222222       0.00000000 </v>
   <v>       0.27777778       0.27777778       0.00000000 </v>
   <v>       0.33333333       0.27777778       0.00000000 </v>
   <v>      -0.33333333      -0.38888889       0.00000000 </v>
   <v>       0.33333333       0.33333333       0.00000000 </v>
  </varray>
  <varray name="weights" >
   <v>       0.00308642 </v>
   <v>       0.01851852 </v>
   <v>       0.01851852 </v>
   <v>       0.01851852 </v>
   <v>       0.01851852 </v>
   <v>       0.01851852 </v>
   <v>       0.01851852 </v>
   <v>       0.01851852 </v>
   <v>       0.01851852 </v>
   <v>       0.00925926 </v>
   <v>       0.01851852 </v>
   <v>       0.01851852 </v>
   <v>       0.01851852 </v>
   <v>       0.01851852 </v>
   <v>       0.01851852 </v>
   <v>       0.01851852 </v>
   <v>       0.01851852 </v>
   <v>       0.01851852 </v>
   <v>       0.01851852 </v>
   <v>       0.01851852 </v>
   <v>       0.01851852 </v>
   <v>       0.01851852 </v>
   <v>       0.01851852 </v>
   <v>       0.01851852 </v>
   <v>       0.01851852 </v>
   <v>       0.01851852 </v>
   <v>       0.01851852 </v>
   <v>       0.01851852 </v>
   <v>       0.01851852 </v>
   <v>       0.01851852 </v>
   <v>       0.01851852 </v>
   <v>       0.01851852 </v>
   <v>       0.01851852 </v>
   <v>       0.01851852 </v>
   <v>       0.01851852 </v>
   <v>       0.01851852 </v>
   <v>       0.01851852 </v>
   <v>       0.01851852 </v>
   <v>       0.01851852 </v>
   <v>       0.01851852 </v>
   <v>       0.01851852 </v>
   <v>       0.01851852 </v>
   <v>       0.01851852 </v>
   <v>       0.01851852 </v>
   <v>       0.01851852 </v>
   <v>       0.01851852 </v>
   <v>       0.01851852 </v>
   <v>       0.01851852 </v>
   <v>       0.01851852 </v>
   <v>       0.01851852 </v>
   <v>       0.01851852 </v>
   <v>       0.01851852 </v>
   <v>       0.01851852 </v>
   <v>       0.01851852 </v>
   <v>       0.01851852 </v>
   <v>       0.00617284 </v>
  </varray>
 </kpoints>
 <parameters>
  <separator name="general" >
   <i type="string" name="SYSTEM">BN/gr</i>
   <i type="logical" name="LCOMPAT"> F  </i>
  </separator>
  <separator name="electronic" >
   <i type="string" name="PREC">accura</i>
   <i name="ENMAX">    400.00000000</i>
   <i name="ENAUG">    644.87300000</i>
   <i name="EDIFF">      0.00000001</i>
   <i type="int" name="IALGO">    38</i>
   <i type="int" name="IWAVPR">    10</i>
   <i type="int" name="NBANDS">  1092</i>
   <i type="int" name="NBANDSLOW">    -1</i>
   <i type="int" name="NBANDSHIGH">    -1</i>
   <i name="NELECT">   1072.00000000</i>
   <i type="int" name="TURBO">     0</i>
   <i type="int" name="IRESTART">     0</i>
   <i type="int" name="NREBOOT">     0</i>
   <i type="int" name="NMIN">     0</i>
   <i name="EREF">      0.00000000</i>
   <separator name="electronic smearing" >
    <i type="int" name="ISMEAR">     0</i>
    <i name="SIGMA">      0.05000000</i>
    <i name="KSPACING">      0.50000000</i>
    <i type="logical" name="KGAMMA"> T  </i>
    <i type="logical" name="KBLOWUP"> T  </i>
   </separator>
   <separator name="electronic projectors" >
    <i type="logical" name="LREAL"> F  </i>
    <v name="ROPT">      0.00000000      0.00000000      0.00000000</v>
    <i type="int" name="LMAXPAW">  -100</i>
    <i type="int" name="LMAXMIX">     2</i>
    <i type="logical" name="NLSPLINE"> F  </i>
   </separator>
   <separator name="electronic startup" >
    <i type="int" name="ISTART">     1</i>
    <i type="int" name="ICHARG">     0</i>
    <i type="int" name="INIWAV">     1</i>
   </separator>
   <separator name="electronic spin" >
    <i type="int" name="ISPIN">     1</i>
    <i type="logical" name="LNONCOLLINEAR"> F  </i>
    <v name="MAGMOM">      1.00000000      1.00000000      1.00000000      1.00000000      1.00000000      1.00000000      1.00000000      1.00000000      1.00000000      1.00000000      1.00000000      1.00000000      1.00000000      1.00000000      1.00000000      1.00000000      1.00000000      1.00000000      1.00000000      1.00000000
      1.00000000      1.00000000      1.00000000      1.00000000      1.00000000      1.00000000      1.00000000      1.00000000      1.00000000      1.00000000      1.00000000      1.00000000      1.00000000      1.00000000      1.00000000      1.00000000      1.00000000      1.00000000      1.00000000      1.00000000
      1.00000000      1.00000000      1.00000000      1.00000000      1.00000000      1.00000000      1.00000000      1.00000000      1.00000000      1.00000000      1.00000000      1.00000000      1.00000000      1.00000000      1.00000000      1.00000000      1.00000000      1.00000000      1.00000000      1.00000000
      1.00000000      1.00000000      1.00000000      1.00000000      1.00000000      1.00000000      1.00000000      1.00000000      1.00000000      1.00000000      1.00000000      1.00000000      1.00000000      1.00000000      1.00000000      1.00000000      1.00000000      1.00000000      1.00000000      1.00000000
      1.00000000      1.00000000      1.00000000      1.00000000      1.00000000      1.00000000      1.00000000      1.00000000      1.00000000      1.00000000      1.00000000      1.00000000      1.00000000      1.00000000      1.00000000      1.00000000      1.00000000      1.00000000      1.00000000      1.00000000
      1.00000000      1.00000000      1.00000000      1.00000000      1.00000000      1.00000000      1.00000000      1.00000000      1.00000000      1.00000000      1.00000000      1.00000000      1.00000000      1.00000000      1.00000000      1.00000000      1.00000000      1.00000000      1.00000000      1.00000000
      1.00000000      1.00000000      1.00000000      1.00000000      1.00000000      1.00000000      1.00000000      1.00000000      1.00000000      1.00000000      1.00000000      1.00000000      1.00000000      1.00000000      1.00000000      1.00000000      1.00000000      1.00000000      1.00000000      1.00000000
      1.00000000      1.00000000      1.00000000      1.00000000      1.00000000      1.00000000      1.00000000      1.00000000      1.00000000      1.00000000      1.00000000      1.00000000      1.00000000      1.00000000      1.00000000      1.00000000      1.00000000      1.00000000      1.00000000      1.00000000
      1.00000000      1.00000000      1.00000000      1.00000000      1.00000000      1.00000000      1.00000000      1.00000000      1.00000000      1.00000000      1.00000000      1.00000000      1.00000000      1.00000000      1.00000000      1.00000000      1.00000000      1.00000000      1.00000000      1.00000000
      1.00000000      1.00000000      1.00000000      1.00000000      1.00000000      1.00000000      1.00000000      1.00000000      1.00000000      1.00000000      1.00000000      1.00000000      1.00000000      1.00000000      1.00000000      1.00000000      1.00000000      1.00000000      1.00000000      1.00000000
      1.00000000      1.00000000      1.00000000      1.00000000      1.00000000      1.00000000      1.00000000      1.00000000      1.00000000      1.00000000      1.00000000      1.00000000      1.00000000      1.00000000      1.00000000      1.00000000      1.00000000      1.00000000      1.00000000      1.00000000
      1.00000000      1.00000000      1.00000000      1.00000000      1.00000000      1.00000000      1.00000000      1.00000000      1.00000000      1.00000000      1.00000000      1.00000000      1.00000000      1.00000000      1.00000000      1.00000000      1.00000000      1.00000000      1.00000000      1.00000000
      1.00000000      1.00000000      1.00000000      1.00000000      1.00000000      1.00000000      1.00000000      1.00000000      1.00000000      1.00000000      1.00000000      1.00000000      1.00000000      1.00000000      1.00000000      1.00000000      1.00000000      1.00000000      1.00000000      1.00000000
      1.00000000      1.00000000      1.00000000      1.00000000      1.00000000      1.00000000      1.00000000      1.00000000</v>
    <i name="NUPDOWN">     -1.00000000</i>
    <i type="logical" name="LSORBIT"> F  </i>
    <v name="SAXIS">      0.00000000      0.00000000      1.00000000</v>
    <i type="logical" name="LSPIRAL"> F  </i>
    <v name="QSPIRAL">      0.00000000      0.00000000      0.00000000</v>
    <i type="logical" name="LZEROZ"> F  </i>
   </separator>
   <separator name="electronic exchange-correlation" >
    <i type="logical" name="LASPH"> F  </i>
    <i type="logical" name="LMETAGGA"> F  </i>
   </separator>
   <separator name="electronic convergence" >
    <i type="int" name="NELM">   100</i>
    <i type="int" name="NELMDL">     0</i>
    <i type="int" name="NELMIN">     2</i>
    <i name="ENINI">    400.00000000</i>
    <separator name="electronic convergence detail" >
     <i type="logical" name="LDIAG"> T  </i>
     <i type="logical" name="LSUBROT"> F  </i>
     <i name="WEIMIN">      0.00000000</i>
     <i name="EBREAK">      0.00000000</i>
     <i name="DEPER">      0.30000000</i>
     <i type="int" name="NRMM">     4</i>
     <i name="TIME">      0.40000000</i>
    </separator>
   </separator>
   <separator name="electronic mixer" >
    <i name="AMIX">      0.40000000</i>
    <i name="BMIX">      1.00000000</i>
    <i name="AMIN">      0.10000000</i>
    <i name="AMIX_MAG">      1.60000000</i>
    <i name="BMIX_MAG">      1.00000000</i>
    <separator name="electronic mixer details" >
     <i type="int" name="IMIX">     4</i>
     <i type="logical" name="MIXFIRST"> F  </i>
     <i type="int" name="MAXMIX">   -45</i>
     <i name="WC">    100.00000000</i>
     <i type="int" name="INIMIX">     1</i>
     <i type="int" name="MIXPRE">     1</i>
     <i type="int" name="MREMOVE">     5</i>
    </separator>
   </separator>
   <separator name="electronic dipolcorrection" >
    <i type="logical" name="LDIPOL"> F  </i>
    <i type="logical" name="LMONO"> F  </i>
    <i type="int" name="IDIPOL">     0</i>
    <i name="EPSILON">      1.00000000</i>
    <v name="DIPOL">   -100.00000000   -100.00000000   -100.00000000</v>
    <i name="EFIELD">      0.00000000</i>
   </separator>
  </separator>
  <separator name="grids" >
   <i type="int" name="NGX">   140</i>
   <i type="int" name="NGY">   140</i>
   <i type="int" name="NGZ">   140</i>
   <i type="int" name="NGXF">   280</i>
   <i type="int" name="NGYF">   280</i>
   <i type="int" name="NGZF">   280</i>
   <i type="logical" name="ADDGRID"> F  </i>
  </separator>
  <separator name="ionic" >
   <i type="int" name="NSW">     0</i>
   <i type="int" name="IBRION">    -1</i>
   <i type="int" name="MDALGO">     0</i>
   <i type="int" name="ISIF">     2</i>
   <i name="PSTRESS">      0.00000000</i>
   <i name="EDIFFG">      0.00000010</i>
   <i type="int" name="NFREE">     0</i>
   <i name="POTIM">      0.50000000</i>
   <i name="SMASS">     -3.00000000</i>
   <i name="SCALEE">      1.00000000</i>
  </separator>
  <separator name="ionic md" >
   <i name="TEBEG">      0.00010000</i>
   <i name="TEEND">      0.00010000</i>
   <i type="int" name="NBLOCK">     1</i>
   <i type="int" name="KBLOCK">     1</i>
   <i type="int" name="NPACO">   256</i>
   <i name="APACO">     10.00000000</i>
  </separator>
  <separator name="symmetry" >
   <i type="int" name="ISYM">     2</i>
   <i name="SYMPREC">      0.00001000</i>
  </separator>
  <separator name="dos" >
   <i type="int" name="LORBIT">     0</i>
   <v name="RWIGS">     -1.00000000     -1.00000000     -1.00000000</v>
   <i type="int" name="NEDOS">  2000</i>
   <i name="EMIN">     10.00000000</i>
   <i name="EMAX">    -10.00000000</i>
   <i name="EFERMI">      0.00000000</i>
  </separator>
  <separator name="writing" >
   <i type="int" name="NWRITE">     2</i>
   <i type="logical" name="LWAVE"> F  </i>
   <i type="logical" name="LDOWNSAMPLE"> F  </i>
   <i type="logical" name="LCHARG"> F  </i>
   <i type="logical" name="LPARD"> F  </i>
   <i type="logical" name="LVTOT"> F  </i>
   <i type="logical" name="LVHAR"> F  </i>
   <i type="logical" name="LELF"> F  </i>
   <i type="logical" name="LOPTICS"> T  </i>
   <v name="STM">      0.00000000      0.00000000      0.00000000      0.00000000      0.00000000      0.00000000      0.00000000</v>
  </separator>
  <separator name="performance" >
   <i type="int" name="NPAR">    26</i>
   <i type="int" name="NSIM">     4</i>
   <i type="int" name="NBLK">    -1</i>
   <i type="logical" name="LPLANE"> T  </i>
   <i type="logical" name="LSCALAPACK"> T  </i>
   <i type="logical" name="LSCAAWARE"> T  </i>
   <i type="logical" name="LSCALU"> F  </i>
   <i type="logical" name="LASYNC"> F  </i>
   <i type="logical" name="LORBITALREAL"> F  </i>
  </separator>
  <separator name="miscellaneous" >
   <i type="int" name="IDIOT">     3</i>
   <i type="int" name="PHON_NSTRUCT">    -1</i>
   <i type="logical" name="LMUSIC"> F  </i>
   <v name="POMASS">     14.00100000     10.81100000     12.01100000</v>
   <v name="DARWINR">      0.00000000      0.00000000      0.00000000</v>
   <v name="DARWINV">      1.00000000      1.00000000      1.00000000</v>
   <i type="logical" name="LCORR"> T  </i>
  </separator>
  <i type="logical" name="GGA_COMPAT"> T  </i>
  <i type="logical" name="LBERRY"> F  </i>
  <i type="int" name="ICORELEVEL">     0</i>
  <i type="logical" name="LDAU"> F  </i>
  <i type="int" name="I_CONSTRAINED_M">     0</i>
  <separator name="electronic exchange-correlation" >
   <i type="string" name="GGA">--</i>
   <i type="int" name="VOSKOWN">     0</i>
   <i type="logical" name="LHFCALC"> F  </i>
   <i type="string" name="PRECFOCK"></i>
   <i type="logical" name="LSYMGRAD"> F  </i>
   <i type="logical" name="LHFONE"> F  </i>
   <i type="logical" name="LRHFCALC"> F  </i>
   <i type="logical" name="LTHOMAS"> F  </i>
   <i type="logical" name="LMODELHF"> F  </i>
   <i type="logical" name="LFOCKACE"> F  </i>
   <i name="ENCUT4O">     -1.00000000</i>
   <i type="int" name="EXXOEP">     0</i>
   <i type="int" name="FOURORBIT">     0</i>
   <i name="AEXX">      0.00000000</i>
   <i name="HFALPHA">      0.00000000</i>
   <i name="MCALPHA">      0.00000000</i>
   <i name="ALDAX">      1.00000000</i>
   <i name="AGGAX">      1.00000000</i>
   <i name="ALDAC">      1.00000000</i>
   <i name="AGGAC">      1.00000000</i>
   <i type="int" name="NKREDX">     1</i>
   <i type="int" name="NKREDY">     1</i>
   <i type="int" name="NKREDZ">     1</i>
   <i type="logical" name="SHIFTRED"> F  </i>
   <i type="logical" name="ODDONLY"> F  </i>
   <i type="logical" name="EVENONLY"> F  </i>
   <i type="int" name="LMAXFOCK">     0</i>
   <i type="int" name="NMAXFOCKAE">     0</i>
   <i type="logical" name="LFOCKAEDFT"> F  </i>
   <i name="HFSCREEN">      0.00000000</i>
   <i name="HFSCREENC">      0.00000000</i>
   <i type="int" name="NBANDSGWLOW">     0</i>
  </separator>
  <separator name="vdW DFT" >
   <i type="logical" name="LUSE_VDW"> F  </i>
   <i name="Zab_VDW">     -0.84910000</i>
   <i name="PARAM1">      0.12340000</i>
   <i name="PARAM2">      1.00000000</i>
   <i name="PARAM3">      0.00000000</i>
  </separator>
  <separator name="model GW" >
   <i type="int" name="MODEL_GW">     0</i>
   <i name="MODEL_EPS0">     16.60272037</i>
   <i name="MODEL_ALPHA">      1.00000000</i>
  </separator>
  <separator name="linear response parameters" >
   <i type="logical" name="LEPSILON"> F  </i>
   <i type="logical" name="LRPA"> F  </i>
   <i type="logical" name="LNABLA"> F  </i>
   <i type="logical" name="LVEL"> F  </i>
   <i name="CSHIFT">      0.10000000</i>
   <i name="OMEGAMAX">     -1.00000000</i>
   <i name="DEG_THRESHOLD">      0.00200000</i>
   <i name="RTIME">     -0.10000000</i>
   <i name="WPLASMAI">      0.00000000</i>
   <v name="DFIELD">      0.00000000      0.00000000      0.00000000</v>
   <v name="WPLASMA">      0.00000000      0.00000000      0.00000000      0.00000000      0.00000000      0.00000000      0.00000000      0.00000000      0.00000000</v>
  </separator>
  <separator name="orbital magnetization" >
   <i type="logical" name="NUCIND"> F  </i>
   <v name="MAGPOS">      0.00000000      0.00000000      0.00000000</v>
   <i type="logical" name="LNICSALL"> T  </i>
   <i type="logical" name="ORBITALMAG"> F  </i>
   <i type="logical" name="LMAGBLOCH"> F  </i>
   <i type="logical" name="LCHIMAG"> F  </i>
   <i type="logical" name="LGAUGE"> T  </i>
   <i type="int" name="MAGATOM">     0</i>
   <v name="MAGDIPOL">      0.00000000      0.00000000      0.00000000</v>
   <v name="AVECCONST">      0.00000000      0.00000000      0.00000000</v>
  </separator>
  <separator name="response functions" >
   <i type="logical" name="LFINITE_TEMPERATURE"> F  </i>
   <i type="logical" name="LADDER"> F  </i>
   <i type="logical" name="LRPAFORCE"> F  </i>
   <i type="logical" name="LFXC"> F  </i>
   <i type="logical" name="LHARTREE"> T  </i>
   <i type="int" name="IBSE">     0</i>
   <v type="int" name="KPOINT">    -1     0     0     0</v>
   <i type="logical" name="LTCTC"> F  </i>
   <i type="logical" name="LTCTE"> F  </i>
   <i type="logical" name="LTETE"> F  </i>
   <i type="logical" name="LTRIPLET"> F  </i>
   <i type="logical" name="LFXCEPS"> F  </i>
   <i type="logical" name="LFXHEG"> F  </i>
   <i type="int" name="NATURALO">     2</i>
   <i type="logical" name="LHOLEGF"> F  </i>
   <i type="logical" name="L2ORDER"> F  </i>
   <i type="logical" name="LDMP1"> F  </i>
   <i type="logical" name="LMP2LT"> F  </i>
   <i type="logical" name="LSMP2LT"> F  </i>
   <i type="logical" name="LGWLF"> F  </i>
   <i name="ENCUTGW">     -2.00000000</i>
   <i name="ENCUTGWSOFT">     -2.00000000</i>
   <i name="ENCUTLF">     -1.00000000</i>
   <i type="logical" name="LESF_SPLINES"> F  </i>
   <i type="int" name="LMAXMP2">    -1</i>
   <i name="SCISSOR">      0.00000000</i>
   <i type="int" name="NOMEGA">     0</i>
   <i type="int" name="NOMEGAR">     0</i>
   <i type="int" name="NBANDSGW">    -1</i>
   <i type="int" name="NBANDSO">    -1</i>
   <i type="int" name="NBANDSV">    -1</i>
   <i type="int" name="NELMGW">     1</i>
   <i type="int" name="NELMHF">     1</i>
   <i type="int" name="DIM">     3</i>
   <i type="int" name="IESPILON">     4</i>
   <i type="int" name="ANTIRES">     0</i>
   <i name="OMEGAMAX">    -30.00000000</i>
   <i name="OMEGAMIN">    -30.00000000</i>
   <i name="OMEGATL">   -200.00000000</i>
   <i type="int" name="OMEGAGRID">     0</i>
   <i name="CSHIFT">      0.10000000</i>
   <i type="logical" name="LSELFENERGY"> F  </i>
   <i type="logical" name="LSPECTRAL"> F  </i>
   <i type="logical" name="LSPECTRALGW"> F  </i>
   <i type="logical" name="LSINGLES"> F  </i>
   <i type="logical" name="LFERMIGW"> F  </i>
   <i type="logical" name="ODDONLYGW"> F  </i>
   <i type="logical" name="EVENONLYGW"> F  </i>
   <i type="int" name="NKREDLFX">     1</i>
   <i type="int" name="NKREDLFY">     1</i>
   <i type="int" name="NKREDLFZ">     1</i>
   <i type="int" name="MAXMEM">  2800</i>
   <i type="int" name="TELESCOPE">     0</i>
   <i type="int" name="NTAUPAR">    -1</i>
   <i type="int" name="NOMEGAPAR">    -1</i>
   <i name="DAMP_NEWTON">      0.80000001</i>
   <i name="LAMBDA">      1.00000000</i>
  </separator>
  <separator name="External order field" >
   <i name="OFIELD_KAPPA">      0.00000000</i>
   <v name="OFIELD_K">      0.00000000      0.00000000      0.00000000</v>
   <i name="OFIELD_Q6_NEAR">      0.00000000</i>
   <i name="OFIELD_Q6_FAR">      0.00000000</i>
   <i name="OFIELD_A">      0.00000000</i>
  </separator>
  <separator name="optional k-points parameters" >
   <i type="int" name="KPOINTS_OPT_MODE">     1</i>
   <i type="logical" name="LKPOINTS_OPT"> F  </i>
  </separator>
 </parameters>
 <atominfo>
  <atoms>     268 </atoms>
  <types>       3 </types>
  <array name="atoms" >
   <dimension dim="1">ion</dimension>
   <field type="string">element</field>
   <field type="int">atomtype</field>
   <set>
    <rc><c>N </c><c>   1</c></rc>
    <rc><c>N </c><c>   1</c></rc>
    <rc><c>N </c><c>   1</c></rc>
    <rc><c>N </c><c>   1</c></rc>
    <rc><c>N </c><c>   1</c></rc>
    <rc><c>N </c><c>   1</c></rc>
    <rc><c>N </c><c>   1</c></rc>
    <rc><c>N </c><c>   1</c></rc>
    <rc><c>N </c><c>   1</c></rc>
    <rc><c>N </c><c>   1</c></rc>
    <rc><c>N </c><c>   1</c></rc>
    <rc><c>N </c><c>   1</c></rc>
    <rc><c>N </c><c>   1</c></rc>
    <rc><c>N </c><c>   1</c></rc>
    <rc><c>N </c><c>   1</c></rc>
    <rc><c>N </c><c>   1</c></rc>
    <rc><c>N </c><c>   1</c></rc>
    <rc><c>N </c><c>   1</c></rc>
    <rc><c>N </c><c>   1</c></rc>
    <rc><c>N </c><c>   1</c></rc>
    <rc><c>N </c><c>   1</c></rc>
    <rc><c>N </c><c>   1</c></rc>
    <rc><c>N </c><c>   1</c></rc>
    <rc><c>N </c><c>   1</c></rc>
    <rc><c>N </c><c>   1</c></rc>
    <rc><c>N </c><c>   1</c></rc>
    <rc><c>N </c><c>   1</c></rc>
    <rc><c>N </c><c>   1</c></rc>
    <rc><c>N </c><c>   1</c></rc>
    <rc><c>N </c><c>   1</c></rc>
    <rc><c>N </c><c>   1</c></rc>
    <rc><c>N </c><c>   1</c></rc>
    <rc><c>N </c><c>   1</c></rc>
    <rc><c>N </c><c>   1</c></rc>
    <rc><c>N </c><c>   1</c></rc>
    <rc><c>N </c><c>   1</c></rc>
    <rc><c>N </c><c>   1</c></rc>
    <rc><c>N </c><c>   1</c></rc>
    <rc><c>N </c><c>   1</c></rc>
    <rc><c>N </c><c>   1</c></rc>
    <rc><c>N </c><c>   1</c></rc>
    <rc><c>N </c><c>   1</c></rc>
    <rc><c>N </c><c>   1</c></rc>
    <rc><c>N </c><c>   1</c></rc>
    <rc><c>N </c><c>   1</c></rc>
    <rc><c>N </c><c>   1</c></rc>
    <rc><c>N </c><c>   1</c></rc>
    <rc><c>N </c><c>   1</c></rc>
    <rc><c>N </c><c>   1</c></rc>
    <rc><c>N </c><c>   1</c></rc>
    <rc><c>N </c><c>   1</c></rc>
    <rc><c>N </c><c>   1</c></rc>
    <rc><c>N </c><c>   1</c></rc>
    <rc><c>N </c><c>   1</c></rc>
    <rc><c>N </c><c>   1</c></rc>
    <rc><c>N </c><c>   1</c></rc>
    <rc><c>N </c><c>   1</c></rc>
    <rc><c>N </c><c>   1</c></rc>
    <rc><c>N </c><c>   1</c></rc>
    <rc><c>N </c><c>   1</c></rc>
    <rc><c>N </c><c>   1</c></rc>
    <rc><c>N </c><c>   1</c></rc>
    <rc><c>N </c><c>   1</c></rc>
    <rc><c>N </c><c>   1</c></rc>
    <rc><c>N </c><c>   1</c></rc>
    <rc><c>N </c><c>   1</c></rc>
    <rc><c>N </c><c>   1</c></rc>
    <rc><c>B </c><c>   2</c></rc>
    <rc><c>B </c><c>   2</c></rc>
    <rc><c>B </c><c>   2</c></rc>
    <rc><c>B </c><c>   2</c></rc>
    <rc><c>B </c><c>   2</c></rc>
    <rc><c>B </c><c>   2</c></rc>
    <rc><c>B </c><c>   2</c></rc>
    <rc><c>B </c><c>   2</c></rc>
    <rc><c>B </c><c>   2</c></rc>
    <rc><c>B </c><c>   2</c></rc>
    <rc><c>B </c><c>   2</c></rc>
    <rc><c>B </c><c>   2</c></rc>
    <rc><c>B </c><c>   2</c></rc>
    <rc><c>B </c><c>   2</c></rc>
    <rc><c>B </c><c>   2</c></rc>
    <rc><c>B </c><c>   2</c></rc>
    <rc><c>B </c><c>   2</c></rc>
    <rc><c>B </c><c>   2</c></rc>
    <rc><c>B </c><c>   2</c></rc>
    <rc><c>B </c><c>   2</c></rc>
    <rc><c>B </c><c>   2</c></rc>
    <rc><c>B </c><c>   2</c></rc>
    <rc><c>B </c><c>   2</c></rc>
    <rc><c>B </c><c>   2</c></rc>
    <rc><c>B </c><c>   2</c></rc>
    <rc><c>B </c><c>   2</c></rc>
    <rc><c>B </c><c>   2</c></rc>
    <rc><c>B </c><c>   2</c></rc>
    <rc><c>B </c><c>   2</c></rc>
    <rc><c>B </c><c>   2</c></rc>
    <rc><c>B </c><c>   2</c></rc>
    <rc><c>B </c><c>   2</c></rc>
    <rc><c>B </c><c>   2</c></rc>
    <rc><c>B </c><c>   2</c></rc>
    <rc><c>B </c><c>   2</c></rc>
    <rc><c>B </c><c>   2</c></rc>
    <rc><c>B </c><c>   2</c></rc>
    <rc><c>B </c><c>   2</c></rc>
    <rc><c>B </c><c>   2</c></rc>
    <rc><c>B </c><c>   2</c></rc>
    <rc><c>B </c><c>   2</c></rc>
    <rc><c>B </c><c>   2</c></rc>
    <rc><c>B </c><c>   2</c></rc>
    <rc><c>B </c><c>   2</c></rc>
    <rc><c>B </c><c>   2</c></rc>
    <rc><c>B </c><c>   2</c></rc>
    <rc><c>B </c><c>   2</c></rc>
    <rc><c>B </c><c>   2</c></rc>
    <rc><c>B </c><c>   2</c></rc>
    <rc><c>B </c><c>   2</c></rc>
    <rc><c>B </c><c>   2</c></rc>
    <rc><c>B </c><c>   2</c></rc>
    <rc><c>B </c><c>   2</c></rc>
    <rc><c>B </c><c>   2</c></rc>
    <rc><c>B </c><c>   2</c></rc>
    <rc><c>B </c><c>   2</c></rc>
    <rc><c>B </c><c>   2</c></rc>
    <rc><c>B </c><c>   2</c></rc>
    <rc><c>B </c><c>   2</c></rc>
    <rc><c>B </c><c>   2</c></rc>
    <rc><c>B </c><c>   2</c></rc>
    <rc><c>B </c><c>   2</c></rc>
    <rc><c>B </c><c>   2</c></rc>
    <rc><c>B </c><c>   2</c></rc>
    <rc><c>B </c><c>   2</c></rc>
    <rc><c>B </c><c>   2</c></rc>
    <rc><c>B </c><c>   2</c></rc>
    <rc><c>C </c><c>   3</c></rc>
    <rc><c>C </c><c>   3</c></rc>
    <rc><c>C </c><c>   3</c></rc>
    <rc><c>C </c><c>   3</c></rc>
    <rc><c>C </c><c>   3</c></rc>
    <rc><c>C </c><c>   3</c></rc>
    <rc><c>C </c><c>   3</c></rc>
    <rc><c>C </c><c>   3</c></rc>
    <rc><c>C </c><c>   3</c></rc>
    <rc><c>C </c><c>   3</c></rc>
    <rc><c>C </c><c>   3</c></rc>
    <rc><c>C </c><c>   3</c></rc>
    <rc><c>C </c><c>   3</c></rc>
    <rc><c>C </c><c>   3</c></rc>
    <rc><c>C </c><c>   3</c></rc>
    <rc><c>C </c><c>   3</c></rc>
    <rc><c>C </c><c>   3</c></rc>
    <rc><c>C </c><c>   3</c></rc>
    <rc><c>C </c><c>   3</c></rc>
    <rc><c>C </c><c>   3</c></rc>
    <rc><c>C </c><c>   3</c></rc>
    <rc><c>C </c><c>   3</c></rc>
    <rc><c>C </c><c>   3</c></rc>
    <rc><c>C </c><c>   3</c></rc>
    <rc><c>C </c><c>   3</c></rc>
    <rc><c>C </c><c>   3</c></rc>
    <rc><c>C </c><c>   3</c></rc>
    <rc><c>C </c><c>   3</c></rc>
    <rc><c>C </c><c>   3</c></rc>
    <rc><c>C </c><c>   3</c></rc>
    <rc><c>C </c><c>   3</c></rc>
    <rc><c>C </c><c>   3</c></rc>
    <rc><c>C </c><c>   3</c></rc>
    <rc><c>C </c><c>   3</c></rc>
    <rc><c>C </c><c>   3</c></rc>
    <rc><c>C </c><c>   3</c></rc>
    <rc><c>C </c><c>   3</c></rc>
    <rc><c>C </c><c>   3</c></rc>
    <rc><c>C </c><c>   3</c></rc>
    <rc><c>C </c><c>   3</c></rc>
    <rc><c>C </c><c>   3</c></rc>
    <rc><c>C </c><c>   3</c></rc>
    <rc><c>C </c><c>   3</c></rc>
    <rc><c>C </c><c>   3</c></rc>
    <rc><c>C </c><c>   3</c></rc>
    <rc><c>C </c><c>   3</c></rc>
    <rc><c>C </c><c>   3</c></rc>
    <rc><c>C </c><c>   3</c></rc>
    <rc><c>C </c><c>   3</c></rc>
    <rc><c>C </c><c>   3</c></rc>
    <rc><c>C </c><c>   3</c></rc>
    <rc><c>C </c><c>   3</c></rc>
    <rc><c>C </c><c>   3</c></rc>
    <rc><c>C </c><c>   3</c></rc>
    <rc><c>C </c><c>   3</c></rc>
    <rc><c>C </c><c>   3</c></rc>
    <rc><c>C </c><c>   3</c></rc>
    <rc><c>C </c><c>   3</c></rc>
    <rc><c>C </c><c>   3</c></rc>
    <rc><c>C </c><c>   3</c></rc>
    <rc><c>C </c><c>   3</c></rc>
    <rc><c>C </c><c>   3</c></rc>
    <rc><c>C </c><c>   3</c></rc>
    <rc><c>C </c><c>   3</c></rc>
    <rc><c>C </c><c>   3</c></rc>
    <rc><c>C </c><c>   3</c></rc>
    <rc><c>C </c><c>   3</c></rc>
    <rc><c>C </c><c>   3</c></rc>
    <rc><c>C </c><c>   3</c></rc>
    <rc><c>C </c><c>   3</c></rc>
    <rc><c>C </c><c>   3</c></rc>
    <rc><c>C </c><c>   3</c></rc>
    <rc><c>C </c><c>   3</c></rc>
    <rc><c>C </c><c>   3</c></rc>
    <rc><c>C </c><c>   3</c></rc>
    <rc><c>C </c><c>   3</c></rc>
    <rc><c>C </c><c>   3</c></rc>
    <rc><c>C </c><c>   3</c></rc>
    <rc><c>C </c><c>   3</c></rc>
    <rc><c>C </c><c>   3</c></rc>
    <rc><c>C </c><c>   3</c></rc>
    <rc><c>C </c><c>   3</c></rc>
    <rc><c>C </c><c>   3</c></rc>
    <rc><c>C </c><c>   3</c></rc>
    <rc><c>C </c><c>   3</c></rc>
    <rc><c>C </c><c>   3</c></rc>
    <rc><c>C </c><c>   3</c></rc>
    <rc><c>C </c><c>   3</c></rc>
    <rc><c>C </c><c>   3</c></rc>
    <rc><c>C </c><c>   3</c></rc>
    <rc><c>C </c><c>   3</c></rc>
    <rc><c>C </c><c>   3</c></rc>
    <rc><c>C </c><c>   3</c></rc>
    <rc><c>C </c><c>   3</c></rc>
    <rc><c>C </c><c>   3</c></rc>
    <rc><c>C </c><c>   3</c></rc>
    <rc><c>C </c><c>   3</c></rc>
    <rc><c>C </c><c>   3</c></rc>
    <rc><c>C </c><c>   3</c></rc>
    <rc><c>C </c><c>   3</c></rc>
    <rc><c>C </c><c>   3</c></rc>
    <rc><c>C </c><c>   3</c></rc>
    <rc><c>C </c><c>   3</c></rc>
    <rc><c>C </c><c>   3</c></rc>
    <rc><c>C </c><c>   3</c></rc>
    <rc><c>C </c><c>   3</c></rc>
    <rc><c>C </c><c>   3</c></rc>
    <rc><c>C </c><c>   3</c></rc>
    <rc><c>C </c><c>   3</c></rc>
    <rc><c>C </c><c>   3</c></rc>
    <rc><c>C </c><c>   3</c></rc>
    <rc><c>C </c><c>   3</c></rc>
    <rc><c>C </c><c>   3</c></rc>
    <rc><c>C </c><c>   3</c></rc>
    <rc><c>C </c><c>   3</c></rc>
    <rc><c>C </c><c>   3</c></rc>
    <rc><c>C </c><c>   3</c></rc>
    <rc><c>C </c><c>   3</c></rc>
    <rc><c>C </c><c>   3</c></rc>
    <rc><c>C </c><c>   3</c></rc>
    <rc><c>C </c><c>   3</c></rc>
    <rc><c>C </c><c>   3</c></rc>
    <rc><c>C </c><c>   3</c></rc>
    <rc><c>C </c><c>   3</c></rc>
    <rc><c>C </c><c>   3</c></rc>
    <rc><c>C </c><c>   3</c></rc>
    <rc><c>C </c><c>   3</c></rc>
    <rc><c>C </c><c>   3</c></rc>
    <rc><c>C </c><c>   3</c></rc>
    <rc><c>C </c><c>   3</c></rc>
    <rc><c>C </c><c>   3</c></rc>
    <rc><c>C </c><c>   3</c></rc>
    <rc><c>C </c><c>   3</c></rc>
    <rc><c>C </c><c>   3</c></rc>
   </set>
  </array>
  <array name="atomtypes" >
   <dimension dim="1">type</dimension>
   <field type="int">atomspertype</field>
   <field type="string">element</field>
   <field>mass</field>
   <field>valence</field>
   <field type="string">pseudopotential</field>
   <set>
    <rc><c>  67</c><c>N </c><c>     14.00100000</c><c>      5.00000000</c><c>  PAW_PBE N 08Apr2002                   </c></rc>
    <rc><c>  67</c><c>B </c><c>     10.81100000</c><c>      3.00000000</c><c>  PAW_PBE B 06Sep2000                   </c></rc>
    <rc><c> 134</c><c>C </c><c>     12.01100000</c><c>      4.00000000</c><c>  PAW_PBE C 08Apr2002                   </c></rc>
   </set>
  </array>
 </atominfo>
 <structure name="initialpos" >
  <crystal>
   <varray name="basis" >
    <v>      20.19326000       0.00000000       0.00000000 </v>
    <v>     -10.09663000      17.48787600       0.00000000 </v>
    <v>       0.00000000       0.00000000      21.00000000 </v>
   </varray>
   <i name="volume">   7415.88176523 </i>
   <varray name="rec_basis" >
    <v>       0.04952147       0.02859124       0.00000000 </v>
    <v>       0.00000000       0.05718247       0.00000000 </v>
    <v>       0.00000000       0.00000000       0.04761905 </v>
   </varray>
  </crystal>
  <varray name="positions" >
   <v>       0.09451827       0.59205144       0.50001764 </v>
   <v>       0.12439821       0.72637121       0.50001694 </v>
   <v>       0.15421517       0.86068494       0.49999232 </v>
   <v>       0.18407737       0.99502028       0.50004584 </v>
   <v>       0.07960517       0.02489713       0.50000662 </v>
   <v>       0.10945490       0.15920851       0.50003420 </v>
   <v>       0.13931506       0.29353023       0.49999232 </v>
   <v>       0.16913278       0.42784833       0.50002082 </v>
   <v>       0.19901311       0.56218576       0.50003531 </v>
   <v>       0.22884744       0.69650302       0.50003045 </v>
   <v>       0.25871455       0.83086722       0.50002082 </v>
   <v>       0.28855306       0.96518101       0.50003329 </v>
   <v>       0.21392638       0.12933921       0.50002368 </v>
   <v>       0.24378303       0.26368666       0.50003197 </v>
   <v>       0.27362879       0.39802701       0.50001694 </v>
   <v>       0.30349698       0.53234343       0.50003045 </v>
   <v>       0.33333300       0.66666700       0.49998682 </v>
   <v>       0.36317265       0.80098689       0.50003531 </v>
   <v>       0.39304008       0.93531135       0.50001904 </v>
   <v>       0.31842890       0.09950913       0.50000164 </v>
   <v>       0.34823826       0.23382185       0.50000271 </v>
   <v>       0.37811807       0.36815409       0.50003892 </v>
   <v>       0.40794856       0.50246783       0.50001764 </v>
   <v>       0.43781424       0.63682735       0.50003531 </v>
   <v>       0.46765657       0.77115256       0.50003045 </v>
   <v>       0.49753217       0.90548173       0.50001764 </v>
   <v>       0.42287565       0.06964121       0.50003092 </v>
   <v>       0.45274073       0.20399868       0.50002544 </v>
   <v>       0.48259079       0.33831265       0.50003899 </v>
   <v>       0.51245009       0.47264702       0.49999235 </v>
   <v>       0.54227227       0.60695992       0.50001904 </v>
   <v>       0.57215167       0.74128545       0.50002082 </v>
   <v>       0.60197299       0.87560179       0.50001694 </v>
   <v>       0.63184591       0.00996398       0.50003892 </v>
   <v>       0.52735298       0.03980307       0.49999235 </v>
   <v>       0.55721687       0.17412455       0.50003819 </v>
   <v>       0.58706046       0.30843835       0.50000640 </v>
   <v>       0.61690767       0.44278313       0.50003819 </v>
   <v>       0.64676557       0.57712435       0.50003092 </v>
   <v>       0.67662795       0.71144694       0.50003329 </v>
   <v>       0.70646977       0.84578483       0.49999232 </v>
   <v>       0.73631334       0.98009738       0.50003197 </v>
   <v>       0.66168735       0.14427814       0.50003899 </v>
   <v>       0.69156165       0.27862211       0.50000640 </v>
   <v>       0.72137789       0.41293954       0.50000640 </v>
   <v>       0.75125794       0.54725927       0.50002544 </v>
   <v>       0.78108123       0.68157110       0.50000164 </v>
   <v>       0.81094291       0.81592263       0.50004584 </v>
   <v>       0.84079149       0.95024639       0.50003420 </v>
   <v>       0.76617815       0.11441641       0.50000271 </v>
   <v>       0.79600132       0.24874206       0.50002544 </v>
   <v>       0.82587545       0.38309233       0.50003819 </v>
   <v>       0.85572186       0.51740921       0.50003899 </v>
   <v>       0.88558359       0.65176174       0.50000271 </v>
   <v>       0.91541284       0.78607362       0.50002368 </v>
   <v>       0.94529196       0.92039483       0.50000662 </v>
   <v>       0.87066079       0.08458716       0.50002368 </v>
   <v>       0.90049087       0.21891877       0.50000164 </v>
   <v>       0.93035879       0.35323443       0.50003092 </v>
   <v>       0.96019693       0.48754991       0.49999235 </v>
   <v>       0.99003602       0.62188193       0.50003892 </v>
   <v>       0.01990262       0.75621697       0.50003197 </v>
   <v>       0.04975361       0.89054510       0.50003420 </v>
   <v>       0.97510287       0.05470804       0.50000662 </v>
   <v>       0.00497972       0.18905709       0.50004584 </v>
   <v>       0.03481899       0.32337205       0.50003329 </v>
   <v>       0.06468865       0.45772773       0.50001904 </v>
   <v>       0.06964939       0.64676852       0.49999833 </v>
   <v>       0.09950144       0.78109088       0.49998131 </v>
   <v>       0.12935180       0.91542201       0.49999259 </v>
   <v>       0.15920360       0.04974967       0.49999454 </v>
   <v>       0.05472451       0.07960628       0.49998718 </v>
   <v>       0.08457799       0.21392979       0.49999259 </v>
   <v>       0.11442361       0.34825410       0.49998505 </v>
   <v>       0.14427954       0.48258833       0.49999141 </v>
   <v>       0.17412732       0.61691281       0.50000828 </v>
   <v>       0.20398600       0.75124556       0.49999981 </v>
   <v>       0.23383049       0.88557639       0.49998505 </v>
   <v>       0.26368242       0.01990132       0.50000125 </v>
   <v>       0.18905504       0.18407875       0.50001530 </v>
   <v>       0.21890912       0.31841156       0.49998131 </v>
   <v>       0.24875444       0.45274044       0.49999981 </v>
   <v>       0.27860892       0.58706277       0.49998502 </v>
   <v>       0.30845385       0.72139108       0.49998502 </v>
   <v>       0.33830880       0.85572046       0.49999141 </v>
   <v>       0.36815669       0.99004583       0.50001066 </v>
   <v>       0.29352983       0.15422507       0.49997625 </v>
   <v>       0.32338177       0.28855799       0.49999105 </v>
   <v>       0.35323148       0.42288087       0.49999833 </v>
   <v>       0.38308719       0.55721451       0.50000828 </v>
   <v>       0.41293723       0.69154615       0.49998502 </v>
   <v>       0.44278549       0.82587268       0.50000828 </v>
   <v>       0.47263813       0.96019740       0.49997601 </v>
   <v>       0.39801561       0.12438123       0.49999004 </v>
   <v>       0.42785994       0.25871015       0.49999876 </v>
   <v>       0.45771378       0.39303527       0.49999589 </v>
   <v>       0.48755927       0.52736187       0.49997601 </v>
   <v>       0.51741167       0.66169120       0.49999141 </v>
   <v>       0.54725956       0.79601400       0.49999981 </v>
   <v>       0.57711913       0.93035061       0.49999833 </v>
   <v>       0.60696473       0.06467951       0.49999589 </v>
   <v>       0.50248506       0.09452726       0.49998748 </v>
   <v>       0.53233689       0.22885200       0.49999161 </v>
   <v>       0.56218773       0.36318153       0.50000788 </v>
   <v>       0.59204320       0.49751494       0.49998748 </v>
   <v>       0.62188914       0.63184331       0.50001066 </v>
   <v>       0.65174590       0.76616951       0.49998505 </v>
   <v>       0.68158844       0.90049856       0.49998131 </v>
   <v>       0.71144201       0.03482377       0.49999105 </v>
   <v>       0.63681847       0.19900620       0.50000788 </v>
   <v>       0.66666700       0.33333300       0.49997191 </v>
   <v>       0.69651411       0.46766311       0.49999161 </v>
   <v>       0.72636562       0.60198439       0.49999004 </v>
   <v>       0.75621990       0.73631758       0.50000125 </v>
   <v>       0.78607021       0.87064820       0.49999259 </v>
   <v>       0.81592125       0.00497629       0.50001530 </v>
   <v>       0.74128985       0.16914879       0.49999876 </v>
   <v>       0.77114800       0.30348589       0.49999161 </v>
   <v>       0.80099380       0.43781227       0.50000788 </v>
   <v>       0.83085121       0.57214006       0.49999876 </v>
   <v>       0.86069524       0.70647017       0.49997625 </v>
   <v>       0.89054607       0.84079640       0.49999454 </v>
   <v>       0.92039372       0.97511823       0.49998718 </v>
   <v>       0.84577493       0.13930476       0.49997625 </v>
   <v>       0.87561877       0.27363438       0.49999004 </v>
   <v>       0.90547274       0.40795680       0.49998748 </v>
   <v>       0.93532049       0.54228622       0.49999589 </v>
   <v>       0.96517623       0.67661823       0.49999105 </v>
   <v>       0.99502371       0.81094496       0.50001530 </v>
   <v>       0.02488177       0.94527549       0.49998718 </v>
   <v>       0.95025033       0.10945393       0.49999454 </v>
   <v>       0.98009868       0.24378010       0.50000125 </v>
   <v>       0.00995417       0.37811086       0.50001066 </v>
   <v>       0.03980260       0.51244073       0.49997601 </v>
   <v>       0.02983731       0.89551914       0.33331639 </v>
   <v>       0.05971059       0.79106057       0.33332668 </v>
   <v>       0.16418345       0.92537461       0.33333019 </v>
   <v>       0.08954552       0.68655621       0.33332155 </v>
   <v>       0.19402360       0.82088965       0.33333781 </v>
   <v>       0.29851488       0.95522061       0.33331218 </v>
   <v>       0.01491142       0.44775366       0.33333223 </v>
   <v>       0.11941361       0.58208694       0.33332023 </v>
   <v>       0.22387464       0.71642445       0.33331466 </v>
   <v>       0.32836022       0.85074760       0.33332542 </v>
   <v>       0.43284224       0.98508858       0.33333223 </v>
   <v>       0.04477939       0.34329527       0.33331218 </v>
   <v>       0.14925240       0.47761262       0.33332542 </v>
   <v>       0.25373475       0.61195013       0.33333331 </v>
   <v>       0.35821538       0.74626525       0.33333331 </v>
   <v>       0.46267333       0.88058639       0.33332023 </v>
   <v>       0.07462539       0.23880884       0.33333019 </v>
   <v>       0.17911035       0.37313394       0.33333781 </v>
   <v>       0.28357555       0.50745019       0.33331466 </v>
   <v>       0.38804987       0.64178462       0.33333331 </v>
   <v>       0.49254981       0.77612536       0.33331466 </v>
   <v>       0.59701069       0.91045448       0.33332155 </v>
   <v>       0.00000000       0.00000000       0.33334019 </v>
   <v>       0.10448086       0.13431717       0.33331639 </v>
   <v>       0.20893943       0.26865103       0.33332668 </v>
   <v>       0.31344379       0.40298931       0.33332155 </v>
   <v>       0.41791306       0.53732667       0.33332023 </v>
   <v>       0.52238738       0.67163978       0.33332542 </v>
   <v>       0.62686606       0.80597640       0.33333781 </v>
   <v>       0.73134897       0.94028941       0.33332668 </v>
   <v>       0.13433197       0.02985158       0.33332556 </v>
   <v>       0.23881447       0.16419574       0.33332255 </v>
   <v>       0.34328500       0.29850550       0.33332628 </v>
   <v>       0.44775502       0.43283611       0.33333439 </v>
   <v>       0.55224634       0.56715776       0.33333223 </v>
   <v>       0.65670473       0.70148512       0.33331218 </v>
   <v>       0.76119116       0.83581655       0.33333019 </v>
   <v>       0.86568283       0.97016269       0.33331639 </v>
   <v>       0.26864761       0.05969510       0.33332738 </v>
   <v>       0.37313674       0.19402428       0.33333718 </v>
   <v>       0.47761121       0.32835266       0.33330812 </v>
   <v>       0.58207985       0.46268335       0.33332780 </v>
   <v>       0.68657865       0.59702592       0.33332174 </v>
   <v>       0.79104848       0.73135239       0.33332738 </v>
   <v>       0.89551861       0.86566803       0.33332556 </v>
   <v>       0.40297408       0.08955272       0.33332174 </v>
   <v>       0.50746955       0.22388676       0.33332424 </v>
   <v>       0.61194683       0.35822229       0.33332957 </v>
   <v>       0.71641721       0.49253045       0.33332424 </v>
   <v>       0.82088755       0.62686326       0.33333718 </v>
   <v>       0.92538127       0.76118553       0.33332255 </v>
   <v>       0.53731665       0.11939651       0.33332780 </v>
   <v>       0.64177771       0.25372454       0.33332957 </v>
   <v>       0.74627546       0.38805317       0.33332957 </v>
   <v>       0.85074145       0.52238879       0.33330812 </v>
   <v>       0.95522151       0.65671500       0.33332628 </v>
   <v>       0.56716389       0.01491891       0.33333439 </v>
   <v>       0.67164734       0.14925855       0.33330812 </v>
   <v>       0.77611324       0.28358279       0.33332424 </v>
   <v>       0.88060349       0.41792015       0.33332780 </v>
   <v>       0.98508109       0.55224498       0.33333439 </v>
   <v>       0.70149450       0.04477849       0.33332628 </v>
   <v>       0.80597572       0.17911245       0.33333718 </v>
   <v>       0.91044728       0.31342135       0.33332174 </v>
   <v>       0.83580426       0.07461873       0.33332255 </v>
   <v>       0.94030490       0.20895152       0.33332738 </v>
   <v>       0.97014842       0.10448139       0.33332556 </v>
   <v>       0.08458493       0.87064681       0.33332942 </v>
   <v>       0.11442334       0.76617668       0.33333295 </v>
   <v>       0.21890939       0.90049746       0.33333620 </v>
   <v>       0.14427933       0.66169356       0.33332846 </v>
   <v>       0.24875343       0.79600722       0.33331836 </v>
   <v>       0.35322251       0.93034557       0.33332103 </v>
   <v>       0.06965443       0.42287694       0.33332103 </v>
   <v>       0.17411802       0.55720997       0.33331117 </v>
   <v>       0.27861438       0.69154596       0.33333480 </v>
   <v>       0.38309194       0.82588198       0.33331117 </v>
   <v>       0.48755880       0.96020037       0.33334003 </v>
   <v>       0.09950254       0.31841293       0.33333620 </v>
   <v>       0.20399278       0.45274621       0.33331836 </v>
   <v>       0.30845404       0.58706842       0.33333480 </v>
   <v>       0.41293158       0.72138562       0.33333480 </v>
   <v>       0.51741423       0.85572067       0.33332846 </v>
   <v>       0.12935319       0.21393812       0.33332942 </v>
   <v>       0.23382332       0.34824666       0.33333295 </v>
   <v>       0.33830644       0.48258577       0.33332846 </v>
   <v>       0.44279003       0.61690806       0.33331117 </v>
   <v>       0.54725379       0.75124657       0.33331836 </v>
   <v>       0.65175334       0.88557666       0.33333295 </v>
   <v>       0.05471940       0.97511226       0.33333000 </v>
   <v>       0.15919586       0.10944811       0.33332590 </v>
   <v>       0.26369109       0.24377698       0.33332076 </v>
   <v>       0.36815260       0.37811462       0.33330763 </v>
   <v>       0.47264157       0.51244120       0.33334003 </v>
   <v>       0.57712306       0.64677749       0.33332103 </v>
   <v>       0.68158707       0.78109061       0.33333620 </v>
   <v>       0.78606188       0.91541507       0.33332942 </v>
   <v>       0.18905663       0.00498096       0.33330241 </v>
   <v>       0.29353044       0.13930834       0.33333938 </v>
   <v>       0.39801912       0.27363821       0.33332816 </v>
   <v>       0.50248629       0.40795898       0.33333239 </v>
   <v>       0.60695408       0.54227643       0.33332606 </v>
   <v>       0.71144395       0.67661560       0.33332921 </v>
   <v>       0.81592433       0.81094337       0.33330241 </v>
   <v>       0.92039286       0.94528060       0.33333000 </v>
   <v>       0.32338440       0.03482835       0.33332921 </v>
   <v>       0.42785160       0.16913885       0.33332050 </v>
   <v>       0.53233250       0.30348203       0.33332762 </v>
   <v>       0.63682780       0.43781106       0.33331279 </v>
   <v>       0.74128825       0.57214840       0.33332050 </v>
   <v>       0.84577789       0.70646956       0.33333938 </v>
   <v>       0.95025224       0.84080414       0.33332590 </v>
   <v>       0.45772357       0.06467865       0.33332606 </v>
   <v>       0.56218894       0.19901674       0.33331279 </v>
   <v>       0.66666700       0.33333300       0.33334288 </v>
   <v>       0.77114853       0.46766750       0.33332762 </v>
   <v>       0.87561910       0.60198088       0.33332816 </v>
   <v>       0.98008689       0.73630891       0.33332076 </v>
   <v>       0.59204102       0.09452630       0.33333239 </v>
   <v>       0.69651797       0.22885147       0.33332762 </v>
   <v>       0.80098326       0.36317220       0.33331279 </v>
   <v>       0.90547370       0.49751371       0.33333239 </v>
   <v>       0.00996202       0.63184740       0.33330763 </v>
   <v>       0.62188538       0.99003798       0.33330763 </v>
   <v>       0.72636179       0.12438090       0.33332816 </v>
   <v>       0.83086115       0.25871175       0.33332050 </v>
   <v>       0.93532135       0.39304592       0.33332606 </v>
   <v>       0.03979963       0.52735843       0.33334003 </v>
   <v>       0.75622302       0.01991311       0.33332076 </v>
   <v>       0.86069166       0.15422211       0.33333938 </v>
   <v>       0.96517165       0.28855605       0.33332921 </v>
   <v>       0.89055189       0.04974776       0.33332590 </v>
   <v>       0.99501904       0.18407567       0.33330241 </v>
   <v>       0.02488774       0.07960714       0.33333000 </v>
  </varray>
 </structure>
 <calculation>
  <scstep>
   <time name="dav">   61.72   61.88</time>
   <time name="total">   62.74   62.91</time>
   <energy>
    <i name="alphaZ">    828.60661240 </i>
    <i name="ewald"> 227471.12959111 </i>
    <i name="hartreedc">-265309.08295803 </i>
    <i name="XCdc">   3763.70300589 </i>
    <i name="pawpsdc"> 123389.56469357 </i>
    <i name="pawaedc">-123533.27635415 </i>
    <i name="eentropy">     -0.00036736 </i>
    <i name="bandstr"> -11225.41128396 </i>
    <i name="atom">  42203.14918400 </i>
    <i name="e_fr_energy">  -2411.61787654 </i>
    <i name="e_wo_entrp">  -2411.61750918 </i>
    <i name="e_0_energy">  -2411.61769286 </i>
   </energy>
  </scstep>
  <scstep>
   <time name="dav">   66.34   66.52</time>
   <time name="total">   66.63   66.93</time>
   <energy>
    <i name="alphaZ">    828.60661240 </i>
    <i name="ewald"> 227471.12959111 </i>
    <i name="hartreedc">-265309.08292040 </i>
    <i name="XCdc">   3763.70301133 </i>
    <i name="pawpsdc"> 123389.56498646 </i>
    <i name="pawaedc">-123533.27664742 </i>
    <i name="eentropy">     -0.00036736 </i>
    <i name="bandstr"> -11225.41132665 </i>
    <i name="atom">  42203.14918400 </i>
[...]
       <r>    13.1326     0.0000  2184.0000 </r>
       <r>    13.1510     0.0000  2184.0000 </r>
       <r>    13.1694     0.0000  2184.0000 </r>
       <r>    13.1878     0.0000  2184.0000 </r>
       <r>    13.2062     0.0000  2184.0000 </r>
       <r>    13.2246     0.0000  2184.0000 </r>
       <r>    13.2430     0.0000  2184.0000 </r>
       <r>    13.2614     0.0000  2184.0000 </r>
       <r>    13.2798     0.0000  2184.0000 </r>
       <r>    13.2982     0.0000  2184.0000 </r>
       <r>    13.3166     0.0000  2184.0000 </r>
       <r>    13.3350     0.0000  2184.0000 </r>
       <r>    13.3533     0.0000  2184.0000 </r>
       <r>    13.3717     0.0000  2184.0000 </r>
       <r>    13.3901     0.0000  2184.0000 </r>
       <r>    13.4085     0.0000  2184.0000 </r>
       <r>    13.4269     0.0000  2184.0000 </r>
       <r>    13.4453     0.0000  2184.0000 </r>
       <r>    13.4637     0.0000  2184.0000 </r>
       <r>    13.4821     0.0000  2184.0000 </r>
       <r>    13.5005     0.0000  2184.0000 </r>
       <r>    13.5189     0.0000  2184.0000 </r>
       <r>    13.5373     0.0000  2184.0000 </r>
       <r>    13.5557     0.0000  2184.0000 </r>
       <r>    13.5741     0.0000  2184.0000 </r>
       <r>    13.5925     0.0000  2184.0000 </r>
       <r>    13.6109     0.0000  2184.0000 </r>
       <r>    13.6293     0.0000  2184.0000 </r>
       <r>    13.6476     0.0000  2184.0000 </r>
       <r>    13.6660     0.0000  2184.0000 </r>
       <r>    13.6844     0.0000  2184.0000 </r>
       <r>    13.7028     0.0000  2184.0000 </r>
       <r>    13.7212     0.0000  2184.0000 </r>
       <r>    13.7396     0.0000  2184.0000 </r>
       <r>    13.7580     0.0000  2184.0000 </r>
       <r>    13.7764     0.0000  2184.0000 </r>
       <r>    13.7948     0.0000  2184.0000 </r>
       <r>    13.8132     0.0000  2184.0000 </r>
       <r>    13.8316     0.0000  2184.0000 </r>
       <r>    13.8500     0.0000  2184.0000 </r>
       <r>    13.8684     0.0000  2184.0000 </r>
       <r>    13.8868     0.0000  2184.0000 </r>
       <r>    13.9052     0.0000  2184.0000 </r>
       <r>    13.9235     0.0000  2184.0000 </r>
       <r>    13.9419     0.0000  2184.0000 </r>
       <r>    13.9603     0.0000  2184.0000 </r>
       <r>    13.9787     0.0000  2184.0000 </r>
       <r>    13.9971     0.0000  2184.0000 </r>
       <r>    14.0155     0.0000  2184.0000 </r>
      </set>
     </set>
    </array>
   </total>
  </dos>
 </calculation>
 <structure name="finalpos" >
  <crystal>
   <varray name="basis" >
    <v>      20.19326000       0.00000000       0.00000000 </v>
    <v>     -10.09663000      17.48787600       0.00000000 </v>
    <v>       0.00000000       0.00000000      21.00000000 </v>
   </varray>
   <i name="volume">   7415.88176523 </i>
   <varray name="rec_basis" >
    <v>       0.04952147       0.02859124       0.00000000 </v>
    <v>       0.00000000       0.05718247       0.00000000 </v>
    <v>       0.00000000       0.00000000       0.04761905 </v>
   </varray>
  </crystal>
  <varray name="positions" >
   <v>       0.09451827       0.59205144       0.50001764 </v>
   <v>       0.12439821       0.72637121       0.50001694 </v>
   <v>       0.15421517       0.86068494       0.49999232 </v>
   <v>       0.18407737       0.99502028       0.50004584 </v>
   <v>       0.07960517       0.02489713       0.50000662 </v>
   <v>       0.10945490       0.15920851       0.50003420 </v>
   <v>       0.13931506       0.29353023       0.49999232 </v>
   <v>       0.16913278       0.42784833       0.50002082 </v>
   <v>       0.19901311       0.56218576       0.50003531 </v>
   <v>       0.22884744       0.69650302       0.50003045 </v>
   <v>       0.25871455       0.83086722       0.50002082 </v>
   <v>       0.28855306       0.96518101       0.50003329 </v>
   <v>       0.21392638       0.12933921       0.50002368 </v>
   <v>       0.24378303       0.26368666       0.50003197 </v>
   <v>       0.27362879       0.39802701       0.50001694 </v>
   <v>       0.30349698       0.53234343       0.50003045 </v>
   <v>       0.33333300       0.66666700       0.49998682 </v>
   <v>       0.36317265       0.80098689       0.50003531 </v>
   <v>       0.39304008       0.93531135       0.50001904 </v>
   <v>       0.31842890       0.09950913       0.50000164 </v>
   <v>       0.34823826       0.23382185       0.50000271 </v>
   <v>       0.37811807       0.36815409       0.50003892 </v>
   <v>       0.40794856       0.50246783       0.50001764 </v>
   <v>       0.43781424       0.63682735       0.50003531 </v>
   <v>       0.46765657       0.77115256       0.50003045 </v>
   <v>       0.49753217       0.90548173       0.50001764 </v>
   <v>       0.42287565       0.06964121       0.50003092 </v>
   <v>       0.45274073       0.20399868       0.50002544 </v>
   <v>       0.48259079       0.33831265       0.50003899 </v>
   <v>       0.51245009       0.47264702       0.49999235 </v>
   <v>       0.54227227       0.60695992       0.50001904 </v>
   <v>       0.57215167       0.74128545       0.50002082 </v>
   <v>       0.60197299       0.87560179       0.50001694 </v>
   <v>       0.63184591       0.00996398       0.50003892 </v>
   <v>       0.52735298       0.03980307       0.49999235 </v>
   <v>       0.55721687       0.17412455       0.50003819 </v>
   <v>       0.58706046       0.30843835       0.50000640 </v>
   <v>       0.61690767       0.44278313       0.50003819 </v>
   <v>       0.64676557       0.57712435       0.50003092 </v>
   <v>       0.67662795       0.71144694       0.50003329 </v>
   <v>       0.70646977       0.84578483       0.49999232 </v>
   <v>       0.73631334       0.98009738       0.50003197 </v>
   <v>       0.66168735       0.14427814       0.50003899 </v>
   <v>       0.69156165       0.27862211       0.50000640 </v>
   <v>       0.72137789       0.41293954       0.50000640 </v>
   <v>       0.75125794       0.54725927       0.50002544 </v>
   <v>       0.78108123       0.68157110       0.50000164 </v>
   <v>       0.81094291       0.81592263       0.50004584 </v>
   <v>       0.84079149       0.95024639       0.50003420 </v>
   <v>       0.76617815       0.11441641       0.50000271 </v>
   <v>       0.79600132       0.24874206       0.50002544 </v>
   <v>       0.82587545       0.38309233       0.50003819 </v>
   <v>       0.85572186       0.51740921       0.50003899 </v>
   <v>       0.88558359       0.65176174       0.50000271 </v>
   <v>       0.91541284       0.78607362       0.50002368 </v>
   <v>       0.94529196       0.92039483       0.50000662 </v>
   <v>       0.87066079       0.08458716       0.50002368 </v>
   <v>       0.90049087       0.21891877       0.50000164 </v>
   <v>       0.93035879       0.35323443       0.50003092 </v>
   <v>       0.96019693       0.48754991       0.49999235 </v>
   <v>       0.99003602       0.62188193       0.50003892 </v>
   <v>       0.01990262       0.75621697       0.50003197 </v>
   <v>       0.04975361       0.89054510       0.50003420 </v>
   <v>       0.97510287       0.05470804       0.50000662 </v>
   <v>       0.00497972       0.18905709       0.50004584 </v>
   <v>       0.03481899       0.32337205       0.50003329 </v>
   <v>       0.06468865       0.45772773       0.50001904 </v>
   <v>       0.06964939       0.64676852       0.49999833 </v>
   <v>       0.09950144       0.78109088       0.49998131 </v>
   <v>       0.12935180       0.91542201       0.49999259 </v>
   <v>       0.15920360       0.04974967       0.49999454 </v>
   <v>       0.05472451       0.07960628       0.49998718 </v>
   <v>       0.08457799       0.21392979       0.49999259 </v>
   <v>       0.11442361       0.34825410       0.49998505 </v>
   <v>       0.14427954       0.48258833       0.49999141 </v>
   <v>       0.17412732       0.61691281       0.50000828 </v>
   <v>       0.20398600       0.75124556       0.49999981 </v>
   <v>       0.23383049       0.88557639       0.49998505 </v>
   <v>       0.26368242       0.01990132       0.50000125 </v>
   <v>       0.18905504       0.18407875       0.50001530 </v>
   <v>       0.21890912       0.31841156       0.49998131 </v>
   <v>       0.24875444       0.45274044       0.49999981 </v>
   <v>       0.27860892       0.58706277       0.49998502 </v>
   <v>       0.30845385       0.72139108       0.49998502 </v>
   <v>       0.33830880       0.85572046       0.49999141 </v>
   <v>       0.36815669       0.99004583       0.50001066 </v>
   <v>       0.29352983       0.15422507       0.49997625 </v>
   <v>       0.32338177       0.28855799       0.49999105 </v>
   <v>       0.35323148       0.42288087       0.49999833 </v>
   <v>       0.38308719       0.55721451       0.50000828 </v>
   <v>       0.41293723       0.69154615       0.49998502 </v>
   <v>       0.44278549       0.82587268       0.50000828 </v>
   <v>       0.47263813       0.96019740       0.49997601 </v>
   <v>       0.39801561       0.12438123       0.49999004 </v>
   <v>       0.42785994       0.25871015       0.49999876 </v>
   <v>       0.45771378       0.39303527       0.49999589 </v>
   <v>       0.48755927       0.52736187       0.49997601 </v>
   <v>       0.51741167       0.66169120       0.49999141 </v>
   <v>       0.54725956       0.79601400       0.49999981 </v>
   <v>       0.57711913       0.93035061       0.49999833 </v>
   <v>       0.60696473       0.06467951       0.49999589 </v>
   <v>       0.50248506       0.09452726       0.49998748 </v>
   <v>       0.53233689       0.22885200       0.49999161 </v>
   <v>       0.56218773       0.36318153       0.50000788 </v>
   <v>       0.59204320       0.49751494       0.49998748 </v>
   <v>       0.62188914       0.63184331       0.50001066 </v>
   <v>       0.65174590       0.76616951       0.49998505 </v>
   <v>       0.68158844       0.90049856       0.49998131 </v>
   <v>       0.71144201       0.03482377       0.49999105 </v>
   <v>       0.63681847       0.19900620       0.50000788 </v>
   <v>       0.66666700       0.33333300       0.49997191 </v>
   <v>       0.69651411       0.46766311       0.49999161 </v>
   <v>       0.72636562       0.60198439       0.49999004 </v>
   <v>       0.75621990       0.73631758       0.50000125 </v>
   <v>       0.78607021       0.87064820       0.49999259 </v>
   <v>       0.81592125       0.00497629       0.50001530 </v>
   <v>       0.74128985       0.16914879       0.49999876 </v>
   <v>       0.77114800       0.30348589       0.49999161 </v>
   <v>       0.80099380       0.43781227       0.50000788 </v>
   <v>       0.83085121       0.57214006       0.49999876 </v>
   <v>       0.86069524       0.70647017       0.49997625 </v>
   <v>       0.89054607       0.84079640       0.49999454 </v>
   <v>       0.92039372       0.97511823       0.49998718 </v>
   <v>       0.84577493       0.13930476       0.49997625 </v>
   <v>       0.87561877       0.27363438       0.49999004 </v>
   <v>       0.90547274       0.40795680       0.49998748 </v>
   <v>       0.93532049       0.54228622       0.49999589 </v>
   <v>       0.96517623       0.67661823       0.49999105 </v>
   <v>       0.99502371       0.81094496       0.50001530 </v>
   <v>       0.02488177       0.94527549       0.49998718 </v>
   <v>       0.95025033       0.10945393       0.49999454 </v>
   <v>       0.98009868       0.24378010       0.50000125 </v>
   <v>       0.00995417       0.37811086       0.50001066 </v>
   <v>       0.03980260       0.51244073       0.49997601 </v>
   <v>       0.02983731       0.89551914       0.33331639 </v>
   <v>       0.05971059       0.79106057       0.33332668 </v>
   <v>       0.16418345       0.92537461       0.33333019 </v>
   <v>       0.08954552       0.68655621       0.33332155 </v>
   <v>       0.19402360       0.82088965       0.33333781 </v>
   <v>       0.29851488       0.95522061       0.33331218 </v>
   <v>       0.01491142       0.44775366       0.33333223 </v>
   <v>       0.11941361       0.58208694       0.33332023 </v>
   <v>       0.22387464       0.71642445       0.33331466 </v>
   <v>       0.32836022       0.85074760       0.33332542 </v>
   <v>       0.43284224       0.98508858       0.33333223 </v>
   <v>       0.04477939       0.34329527       0.33331218 </v>
   <v>       0.14925240       0.47761262       0.33332542 </v>
   <v>       0.25373475       0.61195013       0.33333331 </v>
   <v>       0.35821538       0.74626525       0.33333331 </v>
   <v>       0.46267333       0.88058639       0.33332023 </v>
   <v>       0.07462539       0.23880884       0.33333019 </v>
   <v>       0.17911035       0.37313394       0.33333781 </v>
   <v>       0.28357555       0.50745019       0.33331466 </v>
   <v>       0.38804987       0.64178462       0.33333331 </v>
   <v>       0.49254981       0.77612536       0.33331466 </v>
   <v>       0.59701069       0.91045448       0.33332155 </v>
   <v>       0.00000000       0.00000000       0.33334019 </v>
   <v>       0.10448086       0.13431717       0.33331639 </v>
   <v>       0.20893943       0.26865103       0.33332668 </v>
   <v>       0.31344379       0.40298931       0.33332155 </v>
   <v>       0.41791306       0.53732667       0.33332023 </v>
   <v>       0.52238738       0.67163978       0.33332542 </v>
   <v>       0.62686606       0.80597640       0.33333781 </v>
   <v>       0.73134897       0.94028941       0.33332668 </v>
   <v>       0.13433197       0.02985158       0.33332556 </v>
   <v>       0.23881447       0.16419574       0.33332255 </v>
   <v>       0.34328500       0.29850550       0.33332628 </v>
   <v>       0.44775502       0.43283611       0.33333439 </v>
   <v>       0.55224634       0.56715776       0.33333223 </v>
   <v>       0.65670473       0.70148512       0.33331218 </v>
   <v>       0.76119116       0.83581655       0.33333019 </v>
   <v>       0.86568283       0.97016269       0.33331639 </v>
   <v>       0.26864761       0.05969510       0.33332738 </v>
   <v>       0.37313674       0.19402428       0.33333718 </v>
   <v>       0.47761121       0.32835266       0.33330812 </v>
   <v>       0.58207985       0.46268335       0.33332780 </v>
   <v>       0.68657865       0.59702592       0.33332174 </v>
   <v>       0.79104848       0.73135239       0.33332738 </v>
   <v>       0.89551861       0.86566803       0.33332556 </v>
   <v>       0.40297408       0.08955272       0.33332174 </v>
   <v>       0.50746955       0.22388676       0.33332424 </v>
   <v>       0.61194683       0.35822229       0.33332957 </v>
   <v>       0.71641721       0.49253045       0.33332424 </v>
   <v>       0.82088755       0.62686326       0.33333718 </v>
   <v>       0.92538127       0.76118553       0.33332255 </v>
   <v>       0.53731665       0.11939651       0.33332780 </v>
   <v>       0.64177771       0.25372454       0.33332957 </v>
   <v>       0.74627546       0.38805317       0.33332957 </v>
   <v>       0.85074145       0.52238879       0.33330812 </v>
   <v>       0.95522151       0.65671500       0.33332628 </v>
   <v>       0.56716389       0.01491891       0.33333439 </v>
   <v>       0.67164734       0.14925855       0.33330812 </v>
   <v>       0.77611324       0.28358279       0.33332424 </v>
   <v>       0.88060349       0.41792015       0.33332780 </v>
   <v>       0.98508109       0.55224498       0.33333439 </v>
   <v>       0.70149450       0.04477849       0.33332628 </v>
   <v>       0.80597572       0.17911245       0.33333718 </v>
   <v>       0.91044728       0.31342135       0.33332174 </v>
   <v>       0.83580426       0.07461873       0.33332255 </v>
   <v>       0.94030490       0.20895152       0.33332738 </v>
   <v>       0.97014842       0.10448139       0.33332556 </v>
   <v>       0.08458493       0.87064681       0.33332942 </v>
   <v>       0.11442334       0.76617668       0.33333295 </v>
   <v>       0.21890939       0.90049746       0.33333620 </v>
   <v>       0.14427933       0.66169356       0.33332846 </v>
   <v>       0.24875343       0.79600722       0.33331836 </v>
   <v>       0.35322251       0.93034557       0.33332103 </v>
   <v>       0.06965443       0.42287694       0.33332103 </v>
   <v>       0.17411802       0.55720997       0.33331117 </v>
   <v>       0.27861438       0.69154596       0.33333480 </v>
   <v>       0.38309194       0.82588198       0.33331117 </v>
   <v>       0.48755880       0.96020037       0.33334003 </v>
   <v>       0.09950254       0.31841293       0.33333620 </v>
   <v>       0.20399278       0.45274621       0.33331836 </v>
   <v>       0.30845404       0.58706842       0.33333480 </v>
   <v>       0.41293158       0.72138562       0.33333480 </v>
   <v>       0.51741423       0.85572067       0.33332846 </v>
   <v>       0.12935319       0.21393812       0.33332942 </v>
   <v>       0.23382332       0.34824666       0.33333295 </v>
   <v>       0.33830644       0.48258577       0.33332846 </v>
   <v>       0.44279003       0.61690806       0.33331117 </v>
   <v>       0.54725379       0.75124657       0.33331836 </v>
   <v>       0.65175334       0.88557666       0.33333295 </v>
   <v>       0.05471940       0.97511226       0.33333000 </v>
   <v>       0.15919586       0.10944811       0.33332590 </v>
   <v>       0.26369109       0.24377698       0.33332076 </v>
   <v>       0.36815260       0.37811462       0.33330763 </v>
   <v>       0.47264157       0.51244120       0.33334003 </v>
   <v>       0.57712306       0.64677749       0.33332103 </v>
   <v>       0.68158707       0.78109061       0.33333620 </v>
   <v>       0.78606188       0.91541507       0.33332942 </v>
   <v>       0.18905663       0.00498096       0.33330241 </v>
   <v>       0.29353044       0.13930834       0.33333938 </v>
   <v>       0.39801912       0.27363821       0.33332816 </v>
   <v>       0.50248629       0.40795898       0.33333239 </v>
   <v>       0.60695408       0.54227643       0.33332606 </v>
   <v>       0.71144395       0.67661560       0.33332921 </v>
   <v>       0.81592433       0.81094337       0.33330241 </v>
   <v>       0.92039286       0.94528060       0.33333000 </v>
   <v>       0.32338440       0.03482835       0.33332921 </v>
   <v>       0.42785160       0.16913885       0.33332050 </v>
   <v>       0.53233250       0.30348203       0.33332762 </v>
   <v>       0.63682780       0.43781106       0.33331279 </v>
   <v>       0.74128825       0.57214840       0.33332050 </v>
   <v>       0.84577789       0.70646956       0.33333938 </v>
   <v>       0.95025224       0.84080414       0.33332590 </v>
   <v>       0.45772357       0.06467865       0.33332606 </v>
   <v>       0.56218894       0.19901674       0.33331279 </v>
   <v>       0.66666700       0.33333300       0.33334288 </v>
   <v>       0.77114853       0.46766750       0.33332762 </v>
   <v>       0.87561910       0.60198088       0.33332816 </v>
   <v>       0.98008689       0.73630891       0.33332076 </v>
   <v>       0.59204102       0.09452630       0.33333239 </v>
   <v>       0.69651797       0.22885147       0.33332762 </v>
   <v>       0.80098326       0.36317220       0.33331279 </v>
   <v>       0.90547370       0.49751371       0.33333239 </v>
   <v>       0.00996202       0.63184740       0.33330763 </v>
   <v>       0.62188538       0.99003798       0.33330763 </v>
   <v>       0.72636179       0.12438090       0.33332816 </v>
   <v>       0.83086115       0.25871175       0.33332050 </v>
   <v>       0.93532135       0.39304592       0.33332606 </v>
   <v>       0.03979963       0.52735843       0.33334003 </v>
   <v>       0.75622302       0.01991311       0.33332076 </v>
   <v>       0.86069166       0.15422211       0.33333938 </v>
   <v>       0.96517165       0.28855605       0.33332921 </v>
   <v>       0.89055189       0.04974776       0.33332590 </v>
   <v>       0.99501904       0.18407567       0.33330241 </v>
   <v>       0.02488774       0.07960714       0.33333000 </v>
  </varray>
 </structure>
</modeling>
