 vasp.6.3.0 20Jan22 (build May 12 2022 16:34:25) complex                        
  
 executed on GNU/Linux-IFC-IntelM date 2022.11.23  10:16:18
 running 5152 mpi-ranks, with    1 threads/rank
 distrk:  each k-point on 2576 cores,    2 groups
 distr:  one band on NCORE=  56 cores,   46 groups


--------------------------------------------------------------------------------------------------------


 INCAR:
   SYSTEM = BN/gr
   ISTART = 1
   NCORE = 56
   KPAR = 2
   ENCUT = 400
   PREC = Accurate
   EDIFF = 1E-8
   ISMEAR = 0
   SIGMA = 0.04
   NELMIN = 2
   NELM = 100
   NBANDS = 2700
   LCHARG = .F.
   LWAVE = .F.
   IVDW = 11
   ALGO = Normal
   LOPTICS = .T.
   CSHIFT = 0.100
   NEDOS = 2500

 POTCAR:    PAW_PBE N 08Apr2002                   
 POTCAR:    PAW_PBE B 06Sep2000                   
 POTCAR:    PAW_PBE C 08Apr2002                   
 POTCAR:    PAW_PBE N 08Apr2002                   
   VRHFIN =N: s2p3                                                                                  
   LEXCH  = PE                                                                                      
   EATOM  =   264.5486 eV,   19.4438 Ry                                                             
                                                                                                    
   TITEL  = PAW_PBE N 08Apr2002                                                                     
   LULTRA =        F    use ultrasoft PP ?                                                          
   IUNSCR =        1    unscreen: 0-lin 1-nonlin 2-no                                               
   RPACOR =    1.200    partial core radius                                                         
   POMASS =   14.001; ZVAL   =    5.000    mass and valenz                                          
   RCORE  =    1.500    outmost cutoff radius                                                       
   RWIGS  =    1.400; RWIGS  =    0.741    wigner-seitz radius (au A)                               
   ENMAX  =  400.000; ENMIN  =  300.000 eV                                                          
   ICORE  =        2    local potential                                                             
   LCOR   =        T    correct aug charges                                                         
   LPAW   =        T    paw PP                                                                      
   EAUG   =  627.112                                                                                
   DEXC   =    0.000                                                                                
   RMAX   =    1.529    core radius for proj-oper                                                   
   RAUG   =    1.300    factor for augmentation sphere                                              
   RDEP   =    1.514    radius for radial grids                                                     
   RDEPT  =    1.338    core radius for aug-charge                                                  
                                                                                                    
   Atomic configuration                                                                             
    4 entries                                                                                       
     n  l   j            E        occ.                                                              
     1  0  0.50      -384.7179   2.0000                                                             
     2  0  0.50       -18.5828   2.0000                                                             
     2  1  0.50        -7.0898   3.0000                                                             
     3  2  1.50        -6.8029   0.0000                                                             
   Description                                                                                      
     l       E           TYP  RCUT    TYP  RCUT                                                     
     0    -18.5828119     23  1.200                                                                 
     0    -13.5018863     23  1.200                                                                 
     1     -7.0897853     23  1.500                                                                 
     1      9.5240782     23  1.500                                                                 
     2     -6.8029130      7  1.500                                                                 
  local pseudopotential read in
  partial core-charges read in
  partial kinetic energy density read in
  atomic valenz-charges read in
  non local Contribution for L=           0  read in
    real space projection operators read in
  non local Contribution for L=           0  read in
    real space projection operators read in
  non local Contribution for L=           1  read in
    real space projection operators read in
  non local Contribution for L=           1  read in
    real space projection operators read in
    PAW grid and wavefunctions read in
 
   number of l-projection  operators is LMAX  =           4
   number of lm-projection operators is LMMAX =           8
 
 POTCAR:    PAW_PBE B 06Sep2000                   
   VRHFIN =B: s2p1                                                                                  
   LEXCH  = PE                                                                                      
   EATOM  =    71.1703 eV,    5.2309 Ry                                                             
                                                                                                    
   TITEL  = PAW_PBE B 06Sep2000                                                                     
   LULTRA =        F    use ultrasoft PP ?                                                          
   IUNSCR =        1    unscreen: 0-lin 1-nonlin 2-no                                               
   RPACOR =    1.200    partial core radius                                                         
   POMASS =   10.811; ZVAL   =    3.000    mass and valenz                                          
   RCORE  =    1.700    outmost cutoff radius                                                       
   RWIGS  =    1.710; RWIGS  =    0.905    wigner-seitz radius (au A)                               
   ENMAX  =  318.614; ENMIN  =  238.960 eV                                                          
   ICORE  =        2    local potential                                                             
   LCOR   =        T    correct aug charges                                                         
   LPAW   =        T    paw PP                                                                      
   EAUG   =  535.514                                                                                
   DEXC   =    0.000                                                                                
   RMAX   =    1.732    core radius for proj-oper                                                   
   RAUG   =    1.300    factor for augmentation sphere                                              
   RDEP   =    1.757    radius for radial grids                                                     
   RDEPT  =    1.436    core radius for aug-charge                                                  
                                                                                                    
   Atomic configuration                                                                             
    4 entries                                                                                       
     n  l   j            E        occ.                                                              
     1  0  0.50      -180.5896   2.0000                                                             
     2  0  0.50        -9.4431   2.0000                                                             
     2  1  0.50        -3.6068   1.0000                                                             
     3  2  1.50        -4.0817   0.0000                                                             
   Description                                                                                      
     l       E           TYP  RCUT    TYP  RCUT                                                     
     0     -9.4430752     23  1.500                                                                 
     0      0.8675899     23  1.500                                                                 
     1     -3.6067955     23  1.700                                                                 
     1      6.1086146     23  1.700                                                                 
     2     -4.0817478      7  1.700                                                                 
  local pseudopotential read in
  partial core-charges read in
  partial kinetic energy density read in
  atomic valenz-charges read in
  non local Contribution for L=           0  read in
    real space projection operators read in
  non local Contribution for L=           0  read in
    real space projection operators read in
  non local Contribution for L=           1  read in
    real space projection operators read in
  non local Contribution for L=           1  read in
    real space projection operators read in
    PAW grid and wavefunctions read in
 
   number of l-projection  operators is LMAX  =           4
   number of lm-projection operators is LMMAX =           8
 
 POTCAR:    PAW_PBE C 08Apr2002                   
   VRHFIN =C: s2p2                                                                                  
   LEXCH  = PE                                                                                      
   EATOM  =   147.1560 eV,   10.8157 Ry                                                             
                                                                                                    
   TITEL  = PAW_PBE C 08Apr2002                                                                     
   LULTRA =        F    use ultrasoft PP ?                                                          
   IUNSCR =        1    unscreen: 0-lin 1-nonlin 2-no                                               
   RPACOR =    1.200    partial core radius                                                         
   POMASS =   12.011; ZVAL   =    4.000    mass and valenz                                          
   RCORE  =    1.500    outmost cutoff radius                                                       
   RWIGS  =    1.630; RWIGS  =    0.863    wigner-seitz radius (au A)                               
   ENMAX  =  400.000; ENMIN  =  300.000 eV                                                          
   ICORE  =        2    local potential                                                             
   LCOR   =        T    correct aug charges                                                         
   LPAW   =        T    paw PP                                                                      
   EAUG   =  644.873                                                                                
   DEXC   =    0.000                                                                                
   RMAX   =    1.529    core radius for proj-oper                                                   
   RAUG   =    1.300    factor for augmentation sphere                                              
   RDEP   =    1.501    radius for radial grids                                                     
   RDEPT  =    1.300    core radius for aug-charge                                                  
                                                                                                    
   Atomic configuration                                                                             
    4 entries                                                                                       
     n  l   j            E        occ.                                                              
     1  0  0.50      -273.3789   2.0000                                                             
     2  0  0.50       -13.7508   2.0000                                                             
     2  1  0.50        -5.2854   2.0000                                                             
     3  2  1.50        -5.4423   0.0000                                                             
   Description                                                                                      
     l       E           TYP  RCUT    TYP  RCUT                                                     
     0    -13.7508458     23  1.200                                                                 
     0     -8.2022199     23  1.200                                                                 
     1     -5.2854383     23  1.500                                                                 
     1     34.0145650     23  1.500                                                                 
     2     -5.4423304      7  1.500                                                                 
  local pseudopotential read in
  partial core-charges read in
  partial kinetic energy density read in
  atomic valenz-charges read in
  non local Contribution for L=           0  read in
    real space projection operators read in
  non local Contribution for L=           0  read in
    real space projection operators read in
  non local Contribution for L=           1  read in
    real space projection operators read in
  non local Contribution for L=           1  read in
    real space projection operators read in
    PAW grid and wavefunctions read in
 
   number of l-projection  operators is LMAX  =           4
   number of lm-projection operators is LMMAX =           8
 
 -----------------------------------------------------------------------------
|                                                                             |
|               ----> ADVICE to this user running VASP <----                  |
|                                                                             |
|     You have a (more or less) 'large supercell' and for larger cells it     |
|     might be more efficient to use real-space projection operators.         |
|     Therefore, try LREAL= Auto in the INCAR file.                           |
|     Mind: For very accurate calculation, you might also keep the            |
|     reciprocal projection scheme (i.e. LREAL=.FALSE.).                      |
|                                                                             |
 -----------------------------------------------------------------------------

  PAW_PBE N 08Apr2002                   :
 energy of atom  1       EATOM= -264.5486
 kinetic energy error for atom=    0.0736 (will be added to EATOM!!)
  PAW_PBE B 06Sep2000                   :
 energy of atom  2       EATOM=  -71.1703
 kinetic energy error for atom=    0.0020 (will be added to EATOM!!)
  PAW_PBE C 08Apr2002                   :
 energy of atom  3       EATOM= -147.1560
 kinetic energy error for atom=    0.0288 (will be added to EATOM!!)
 
 
 POSCAR: B163 C326 N163
  positions in direct lattice
  velocities in cartesian coordinates
 exchange correlation table for  LEXCH =        8
   RHO(1)=    0.500       N(1)  =     2000
   RHO(2)=  100.500       N(2)  =     4000
 


--------------------------------------------------------------------------------------------------------


 ion  position               nearest neighbor table
   1  0.053  0.916  0.500- 164 1.42 165 1.42 278 1.42
   2  0.072  0.849  0.500- 165 1.42 288 1.42 167 1.42
   3  0.139  0.935  0.500- 168 1.42 166 1.42 165 1.42
   4  0.090  0.781  0.500- 297 1.42 171 1.42 167 1.42
   5  0.157  0.867  0.500- 167 1.42 172 1.42 168 1.42
   6  0.225  0.953  0.500- 169 1.42 168 1.42 173 1.42
   7  0.041  0.628  0.500- 304 1.42 175 1.42 170 1.42
   8  0.108  0.714  0.500- 170 1.42 176 1.42 171 1.42
   9  0.176  0.800  0.500- 172 1.42 177 1.42 171 1.42
  10  0.243  0.885  0.500- 173 1.42 178 1.42 172 1.42
  11  0.311  0.971  0.500- 174 1.42 173 1.42 179 1.42
  12  0.059  0.560  0.500- 175 1.42 180 1.42 310 1.42
  13  0.127  0.646  0.500- 181 1.42 176 1.42 175 1.42
  14  0.194  0.732  0.500- 176 1.42 177 1.42 182 1.42
  15  0.262  0.818  0.500- 183 1.42 177 1.42 178 1.42
  16  0.329  0.904  0.500- 178 1.42 179 1.42 184 1.42
  17  0.078  0.493  0.500- 315 1.42 180 1.42 186 1.42
  18  0.145  0.579  0.500- 187 1.42 180 1.42 181 1.42
  19  0.213  0.665  0.500- 188 1.42 181 1.42 182 1.42
  20  0.280  0.750  0.500- 182 1.42 189 1.42 183 1.42
  21  0.348  0.836  0.500- 184 1.42 183 1.42 190 1.42
  22  0.415  0.922  0.500- 185 1.42 191 1.42 184 1.42
  23  0.096  0.425  0.500- 194 1.42 320 1.42 186 1.42
  24  0.164  0.511  0.500- 186 1.42 195 1.42 187 1.42
  25  0.231  0.597  0.500- 187 1.42 188 1.42 196 1.42
  26  0.299  0.683  0.500- 189 1.42 197 1.42 188 1.42
  27  0.366  0.769  0.500- 190 1.42 198 1.42 189 1.42
  28  0.434  0.855  0.500- 190 1.42 191 1.42 199 1.42
  29  0.501  0.941  0.500- 200 1.42 191 1.42 192 1.42
  30  0.047  0.272  0.500- 323 1.42 193 1.42 202 1.42
  31  0.115  0.358  0.500- 193 1.42 194 1.42 203 1.42
  32  0.182  0.444  0.500- 195 1.42 204 1.42 194 1.42
  33  0.250  0.530  0.500- 205 1.42 196 1.42 195 1.42
  34  0.317  0.616  0.500- 196 1.42 197 1.42 206 1.42
  35  0.384  0.701  0.500- 207 1.42 197 1.42 198 1.42
  36  0.452  0.787  0.500- 198 1.42 199 1.42 208 1.42
  37  0.519  0.873  0.500- 199 1.42 209 1.42 200 1.42
  38  0.587  0.959  0.500- 201 1.42 200 1.42 210 1.42
  39  0.065  0.205  0.500- 202 1.42 325 1.42 212 1.42
  40  0.133  0.290  0.500- 213 1.42 203 1.42 202 1.42
  41  0.200  0.376  0.500- 203 1.42 204 1.42 214 1.42
  42  0.268  0.462  0.500- 215 1.42 204 1.42 205 1.42
  43  0.335  0.548  0.500- 206 1.42 216 1.42 205 1.42
  44  0.403  0.634  0.500- 217 1.42 206 1.42 207 1.42
  45  0.470  0.720  0.500- 208 1.42 207 1.42 218 1.42
  46  0.538  0.806  0.500- 209 1.42 219 1.42 208 1.42
  47  0.605  0.892  0.500- 210 1.42 220 1.42 209 1.42
  48  0.673  0.977  0.500- 210 1.42 211 1.42 221 1.42
  49  0.084  0.137  0.500- 326 1.42 212 1.42 223 1.42
  50  0.151  0.223  0.500- 212 1.42 224 1.42 213 1.42
  51  0.219  0.309  0.500- 225 1.42 214 1.42 213 1.42
  52  0.286  0.395  0.500- 226 1.42 214 1.42 215 1.42
  53  0.354  0.481  0.500- 216 1.42 215 1.42 227 1.42
  54  0.421  0.566  0.500- 217 1.42 228 1.42 216 1.42
  55  0.489  0.652  0.500- 229 1.42 218 1.42 217 1.42
  56  0.556  0.738  0.500- 218 1.42 219 1.42 230 1.42
  57  0.624  0.824  0.500- 231 1.42 219 1.42 220 1.42
  58  0.691  0.910  0.500- 221 1.42 220 1.42 232 1.42
  59  0.035  0.984  0.500- 268 1.42 164 1.42 222 1.42
  60  0.102  0.070  0.500- 234 1.42 223 1.42 222 1.42
  61  0.170  0.155  0.500- 224 1.42 235 1.42 223 1.42
  62  0.237  0.241  0.500- 225 1.42 224 1.42 236 1.42
  63  0.305  0.327  0.500- 226 1.42 237 1.42 225 1.42
  64  0.372  0.413  0.500- 238 1.42 227 1.42 226 1.42
  65  0.440  0.499  0.500- 227 1.42 228 1.42 239 1.42
  66  0.507  0.585  0.500- 240 1.42 228 1.42 229 1.42
  67  0.575  0.671  0.500- 230 1.42 241 1.42 229 1.42
  68  0.642  0.757  0.500- 242 1.42 230 1.42 231 1.42
  69  0.710  0.843  0.500- 232 1.42 231 1.42 243 1.42
  70  0.777  0.928  0.500- 244 1.42 233 1.42 232 1.42
  71  0.121  0.002  0.500- 234 1.42 164 1.42 166 1.42
  72  0.188  0.088  0.500- 235 1.42 234 1.42 246 1.42
  73  0.256  0.174  0.500- 247 1.42 236 1.42 235 1.42
  74  0.323  0.260  0.500- 236 1.42 237 1.42 248 1.42
  75  0.391  0.346  0.500- 237 1.42 249 1.42 238 1.42
  76  0.458  0.431  0.500- 239 1.42 250 1.42 238 1.42
  77  0.526  0.517  0.500- 251 1.42 240 1.42 239 1.42
  78  0.593  0.603  0.500- 241 1.42 240 1.42 252 1.42
  79  0.661  0.689  0.500- 253 1.42 242 1.42 241 1.42
  80  0.728  0.775  0.500- 254 1.42 242 1.42 243 1.42
  81  0.795  0.861  0.500- 243 1.42 255 1.42 244 1.42
  82  0.863  0.947  0.500- 256 1.42 244 1.42 245 1.42
  83  0.207  0.020  0.500- 166 1.42 246 1.42 169 1.42
  84  0.274  0.106  0.500- 246 1.42 258 1.42 247 1.42
  85  0.342  0.192  0.500- 248 1.42 259 1.42 247 1.42
  86  0.409  0.278  0.500- 260 1.42 249 1.42 248 1.42
  87  0.476  0.364  0.500- 250 1.42 249 1.42 261 1.42
  88  0.544  0.450  0.500- 251 1.42 262 1.42 250 1.42
  89  0.611  0.536  0.500- 263 1.42 252 1.42 251 1.42
  90  0.679  0.622  0.500- 252 1.42 253 1.42 264 1.42
  91  0.746  0.708  0.500- 265 1.42 253 1.42 254 1.42
  92  0.814  0.793  0.500- 255 1.42 266 1.42 254 1.42
  93  0.881  0.879  0.500- 267 1.42 256 1.42 255 1.42
  94  0.949  0.965  0.500- 257 1.42 256 1.42 268 1.42
  95  0.292  0.039  0.500- 258 1.42 174 1.42 169 1.42
  96  0.360  0.125  0.500- 259 1.42 258 1.42 269 1.42
  97  0.427  0.211  0.500- 260 1.42 259 1.42 270 1.42
  98  0.495  0.297  0.500- 271 1.42 261 1.42 260 1.42
  99  0.562  0.382  0.500- 261 1.42 262 1.42 272 1.42
 100  0.630  0.468  0.500- 262 1.42 273 1.42 263 1.42
 101  0.697  0.554  0.500- 264 1.42 274 1.42 263 1.42
 102  0.765  0.640  0.500- 275 1.42 265 1.42 264 1.42
 103  0.832  0.726  0.500- 266 1.42 265 1.42 276 1.42
 104  0.900  0.812  0.500- 277 1.42 267 1.42 266 1.42
 105  0.967  0.898  0.500- 267 1.42 268 1.42 278 1.42
 106  0.378  0.057  0.500- 279 1.42 174 1.42 269 1.42
 107  0.446  0.143  0.500- 269 1.42 270 1.42 280 1.42
 108  0.513  0.229  0.500- 270 1.42 281 1.42 271 1.42
 109  0.581  0.315  0.500- 272 1.42 282 1.42 271 1.42
 110  0.648  0.401  0.500- 283 1.42 273 1.42 272 1.42
 111  0.716  0.487  0.500- 274 1.42 273 1.42 284 1.42
 112  0.783  0.573  0.500- 285 1.42 275 1.42 274 1.42
 113  0.851  0.658  0.500- 286 1.42 275 1.42 276 1.42
 114  0.918  0.744  0.500- 276 1.42 287 1.42 277 1.42
 115  0.986  0.830  0.500- 288 1.42 277 1.42 278 1.42
 116  0.397  0.990  0.500- 179 1.42 185 1.42 279 1.42
 117  0.464  0.076  0.500- 280 1.42 279 1.42 289 1.42
 118  0.532  0.162  0.500- 290 1.42 281 1.42 280 1.42
 119  0.599  0.247  0.500- 282 1.42 281 1.42 291 1.42
 120  0.667  0.333  0.500- 292 1.42 282 1.42 283 1.42
 121  0.734  0.419  0.500- 293 1.42 283 1.42 284 1.42
 122  0.802  0.505  0.500- 284 1.42 294 1.42 285 1.42
 123  0.869  0.591  0.500- 285 1.42 295 1.42 286 1.42
 124  0.937  0.677  0.500- 287 1.42 296 1.42 286 1.42
 125  0.004  0.763  0.500- 297 1.42 288 1.42 287 1.42
 126  0.483  0.008  0.500- 289 1.42 185 1.42 192 1.42
 127  0.550  0.094  0.500- 289 1.42 290 1.42 298 1.42
 128  0.618  0.180  0.500- 299 1.42 290 1.42 291 1.42
 129  0.685  0.266  0.500- 291 1.42 292 1.42 300 1.42
 130  0.753  0.352  0.500- 292 1.42 301 1.42 293 1.42
 131  0.820  0.438  0.500- 294 1.42 302 1.42 293 1.42
 132  0.888  0.524  0.500- 303 1.42 295 1.42 294 1.42
 133  0.955  0.609  0.500- 296 1.42 295 1.42 304 1.42
 134  0.023  0.695  0.500- 170 1.42 296 1.42 297 1.42
 135  0.569  0.027  0.500- 192 1.42 298 1.42 201 1.42
 136  0.636  0.112  0.500- 298 1.42 305 1.42 299 1.42
 137  0.703  0.198  0.500- 300 1.42 299 1.42 306 1.42
 138  0.771  0.284  0.500- 307 1.42 301 1.42 300 1.42
 139  0.838  0.370  0.500- 302 1.42 301 1.42 308 1.42
 140  0.906  0.456  0.500- 309 1.42 302 1.42 303 1.42
 141  0.973  0.542  0.500- 310 1.42 303 1.42 304 1.42
 142  0.654  0.045  0.500- 211 1.42 305 1.42 201 1.42
 143  0.722  0.131  0.500- 306 1.42 305 1.42 311 1.42
 144  0.789  0.217  0.500- 306 1.42 312 1.42 307 1.42
 145  0.857  0.303  0.500- 313 1.42 307 1.42 308 1.42
 146  0.924  0.389  0.500- 308 1.42 314 1.42 309 1.42
 147  0.992  0.474  0.500- 309 1.42 315 1.42 310 1.42
 148  0.740  0.063  0.500- 316 1.42 211 1.42 311 1.42
 149  0.808  0.149  0.500- 311 1.42 312 1.42 317 1.42
 150  0.875  0.235  0.500- 312 1.42 318 1.42 313 1.42
 151  0.943  0.321  0.500- 314 1.42 319 1.42 313 1.42
 152  0.010  0.407  0.500- 320 1.42 315 1.42 314 1.42
 153  0.759  0.996  0.500- 221 1.42 233 1.42 316 1.42
 154  0.826  0.082  0.500- 317 1.42 316 1.42 321 1.42
 155  0.894  0.168  0.500- 322 1.42 318 1.42 317 1.42
 156  0.961  0.254  0.500- 318 1.42 319 1.42 323 1.42
 157  0.029  0.339  0.500- 319 1.42 193 1.42 320 1.42
 158  0.845  0.014  0.500- 233 1.42 321 1.42 245 1.42
 159  0.912  0.100  0.500- 321 1.42 324 1.42 322 1.42
 160  0.980  0.186  0.500- 325 1.42 322 1.42 323 1.42
 161  0.930  0.033  0.500- 324 1.42 245 1.42 257 1.42
 162  0.998  0.119  0.500- 324 1.42 325 1.42 326 1.42
 163  0.016  0.051  0.500- 222 1.42 326 1.42 257 1.42
 164  0.070  0.967  0.500-   1 1.42  71 1.42  59 1.42
 165  0.088  0.900  0.500-   2 1.42   1 1.42   3 1.42
 166  0.155  0.986  0.500-  83 1.42  71 1.42   3 1.42
 167  0.106  0.832  0.500-   5 1.42   4 1.42   2 1.42
 168  0.174  0.918  0.500-   3 1.42   6 1.42   5 1.42
 169  0.241  0.004  0.500-   6 1.42  83 1.42  95 1.42
 170  0.057  0.679  0.500- 134 1.42   8 1.42   7 1.42
 171  0.125  0.765  0.500-   4 1.42   8 1.42   9 1.42
 172  0.192  0.851  0.500-   9 1.42   5 1.42  10 1.42
 173  0.260  0.937  0.500-  11 1.42  10 1.42   6 1.42
 174  0.327  0.022  0.500-  11 1.42  95 1.42 106 1.42
 175  0.076  0.611  0.500-  12 1.42   7 1.42  13 1.42
 176  0.143  0.697  0.500-  14 1.42  13 1.42   8 1.42
 177  0.211  0.783  0.500-  14 1.42   9 1.42  15 1.42
 178  0.278  0.869  0.500-  16 1.42  10 1.42  15 1.42
 179  0.346  0.955  0.500- 116 1.42  16 1.42  11 1.42
 180  0.094  0.544  0.500-  17 1.42  18 1.42  12 1.42
 181  0.162  0.630  0.500-  13 1.42  19 1.42  18 1.42
 182  0.229  0.716  0.500-  20 1.42  19 1.42  14 1.42
 183  0.297  0.802  0.500-  15 1.42  21 1.42  20 1.42
 184  0.364  0.888  0.500-  21 1.42  16 1.42  22 1.42
 185  0.431  0.973  0.500-  22 1.42 116 1.42 126 1.42
 186  0.112  0.476  0.500-  24 1.42  23 1.42  17 1.42
 187  0.180  0.562  0.500-  18 1.42  25 1.42  24 1.42
 188  0.247  0.648  0.500-  19 1.42  25 1.42  26 1.42
 189  0.315  0.734  0.500-  26 1.42  20 1.42  27 1.42
 190  0.382  0.820  0.500-  28 1.42  27 1.42  21 1.42
 191  0.450  0.906  0.500-  22 1.42  28 1.42  29 1.42
 192  0.517  0.992  0.500- 135 1.42 126 1.42  29 1.42
 193  0.063  0.323  0.500- 157 1.42  31 1.42  30 1.42
 194  0.131  0.409  0.500-  23 1.42  31 1.42  32 1.42
 195  0.198  0.495  0.500-  32 1.42  24 1.42  33 1.42
 196  0.266  0.581  0.500-  34 1.42  33 1.42  25 1.42
 197  0.333  0.667  0.500-  26 1.42  35 1.42  34 1.42
 198  0.401  0.753  0.500-  36 1.42  27 1.42  35 1.42
 199  0.468  0.838  0.500-  37 1.42  36 1.42  28 1.42
 200  0.536  0.924  0.500-  29 1.42  38 1.42  37 1.42
 201  0.603  0.010  0.500-  38 1.42 135 1.42 142 1.42
 202  0.082  0.256  0.500-  39 1.42  30 1.42  40 1.42
 203  0.149  0.342  0.500-  41 1.42  40 1.42  31 1.42
 204  0.217  0.427  0.500-  42 1.42  41 1.42  32 1.42
 205  0.284  0.513  0.500-  33 1.42  43 1.42  42 1.42
 206  0.352  0.599  0.500-  43 1.42  44 1.42  34 1.42
 207  0.419  0.685  0.500-  35 1.42  45 1.42  44 1.42
 208  0.487  0.771  0.500-  45 1.42  36 1.42  46 1.42
 209  0.554  0.857  0.500-  46 1.42  37 1.42  47 1.42
 210  0.622  0.943  0.500-  48 1.42  47 1.42  38 1.42
 211  0.689  0.029  0.500- 142 1.42 148 1.42  48 1.42
 212  0.100  0.188  0.500-  50 1.42  49 1.42  39 1.42
 213  0.168  0.274  0.500-  40 1.42  51 1.42  50 1.42
 214  0.235  0.360  0.500-  51 1.42  52 1.42  41 1.42
 215  0.303  0.446  0.500-  42 1.42  53 1.42  52 1.42
 216  0.370  0.532  0.500-  53 1.42  43 1.42  54 1.42
 217  0.438  0.618  0.500-  54 1.42  44 1.42  55 1.42
 218  0.505  0.703  0.500-  56 1.42  55 1.42  45 1.42
 219  0.573  0.789  0.500-  46 1.42  57 1.42  56 1.42
 220  0.640  0.875  0.500-  58 1.42  47 1.42  57 1.42
 221  0.708  0.961  0.500-  58 1.42 153 1.42  48 1.42
 222  0.051  0.035  0.500- 163 1.42  60 1.42  59 1.42
 223  0.119  0.121  0.500-  60 1.42  61 1.42  49 1.42
 224  0.186  0.207  0.500-  61 1.42  50 1.42  62 1.42
 225  0.254  0.292  0.500-  51 1.42  62 1.42  63 1.42
 226  0.321  0.378  0.500-  63 1.42  52 1.42  64 1.42
 227  0.389  0.464  0.500-  65 1.42  64 1.42  53 1.42
 228  0.456  0.550  0.500-  66 1.42  54 1.42  65 1.42
 229  0.524  0.636  0.500-  55 1.42  67 1.42  66 1.42
 230  0.591  0.722  0.500-  67 1.42  68 1.42  56 1.42
 231  0.658  0.808  0.500-  57 1.42  69 1.42  68 1.42
 232  0.726  0.894  0.500-  69 1.42  58 1.42  70 1.42
 233  0.793  0.980  0.500- 158 1.42  70 1.42 153 1.42
 234  0.137  0.053  0.500-  60 1.42  71 1.42  72 1.42
 235  0.205  0.139  0.500-  72 1.42  61 1.42  73 1.42
 236  0.272  0.225  0.500-  74 1.42  73 1.42  62 1.42
 237  0.339  0.311  0.500-  75 1.42  74 1.42  63 1.42
 238  0.407  0.397  0.500-  64 1.42  76 1.42  75 1.42
 239  0.474  0.483  0.500-  76 1.42  77 1.42  65 1.42
 240  0.542  0.569  0.500-  66 1.42  78 1.42  77 1.42
 241  0.609  0.654  0.500-  78 1.42  67 1.42  79 1.42
 242  0.677  0.740  0.500-  79 1.42  68 1.42  80 1.42
 243  0.744  0.826  0.500-  81 1.42  80 1.42  69 1.42
 244  0.812  0.912  0.500-  70 1.42  82 1.42  81 1.42
 245  0.879  0.998  0.500- 161 1.42 158 1.42  82 1.42
 246  0.223  0.072  0.500-  84 1.42  83 1.42  72 1.42
 247  0.290  0.157  0.500-  73 1.42  85 1.42  84 1.42
 248  0.358  0.243  0.500-  85 1.42  86 1.42  74 1.42
 249  0.425  0.329  0.500-  75 1.42  86 1.42  87 1.42
 250  0.493  0.415  0.500-  87 1.42  76 1.42  88 1.42
 251  0.560  0.501  0.500-  88 1.42  77 1.42  89 1.42
 252  0.628  0.587  0.500-  90 1.42  89 1.42  78 1.42
 253  0.695  0.673  0.500-  79 1.42  91 1.42  90 1.42
 254  0.763  0.759  0.500-  80 1.42  92 1.42  91 1.42
 255  0.830  0.845  0.500-  92 1.42  93 1.42  81 1.42
 256  0.898  0.930  0.500-  82 1.42  93 1.42  94 1.42
 257  0.965  0.016  0.500-  94 1.42 161 1.42 163 1.42
 258  0.309  0.090  0.500-  95 1.42  84 1.42  96 1.42
 259  0.376  0.176  0.500-  96 1.42  85 1.42  97 1.42
 260  0.444  0.262  0.500-  97 1.42  86 1.42  98 1.42
 261  0.511  0.348  0.500-  99 1.42  98 1.42  87 1.42
 262  0.579  0.434  0.500- 100 1.42  88 1.42  99 1.42
 263  0.646  0.519  0.500-  89 1.42 101 1.42 100 1.42
 264  0.714  0.605  0.500- 101 1.42 102 1.42  90 1.42
 265  0.781  0.691  0.500-  91 1.42 103 1.42 102 1.42
 266  0.849  0.777  0.500- 103 1.42  92 1.42 104 1.42
 267  0.916  0.863  0.500- 105 1.42  93 1.42 104 1.42
 268  0.984  0.949  0.500-  59 1.42 105 1.42  94 1.42
 269  0.395  0.108  0.500- 107 1.42  96 1.42 106 1.42
 270  0.462  0.194  0.500- 108 1.42 107 1.42  97 1.42
 271  0.530  0.280  0.500-  98 1.42 109 1.42 108 1.42
 272  0.597  0.366  0.500- 109 1.42  99 1.42 110 1.42
 273  0.665  0.452  0.500- 100 1.42 111 1.42 110 1.42
 274  0.732  0.538  0.500- 111 1.42 101 1.42 112 1.42
 275  0.800  0.624  0.500- 102 1.42 113 1.42 112 1.42
 276  0.867  0.710  0.500- 114 1.42 113 1.42 103 1.42
 277  0.935  0.795  0.500- 104 1.42 115 1.42 114 1.42
 278  0.002  0.881  0.500- 105 1.42 115 1.42   1 1.42
 279  0.413  0.041  0.500- 106 1.42 117 1.42 116 1.42
 280  0.481  0.127  0.500- 117 1.42 107 1.42 118 1.42
 281  0.548  0.213  0.500- 118 1.42 108 1.42 119 1.42
 282  0.616  0.299  0.500- 119 1.42 120 1.42 109 1.42
 283  0.683  0.384  0.500- 110 1.42 120 1.42 121 1.42
 284  0.751  0.470  0.500- 122 1.42 121 1.42 111 1.42
 285  0.818  0.556  0.500- 112 1.42 123 1.42 122 1.42
 286  0.885  0.642  0.500- 113 1.42 123 1.42 124 1.42
 287  0.953  0.728  0.500- 124 1.42 114 1.42 125 1.42
 288  0.020  0.814  0.500- 115 1.42   2 1.42 125 1.42
 289  0.499  0.059  0.500- 127 1.42 126 1.42 117 1.42
 290  0.566  0.145  0.500- 118 1.42 127 1.42 128 1.42
 291  0.634  0.231  0.500- 129 1.42 128 1.42 119 1.42
 292  0.701  0.317  0.500- 130 1.42 120 1.42 129 1.42
 293  0.769  0.403  0.500- 121 1.42 131 1.42 130 1.42
 294  0.836  0.489  0.500- 131 1.42 122 1.42 132 1.42
 295  0.904  0.575  0.500- 133 1.42 123 1.42 132 1.42
 296  0.971  0.661  0.500- 133 1.42 124 1.42 134 1.42
 297  0.039  0.746  0.500-   4 1.42 125 1.42 134 1.42
 298  0.585  0.078  0.500- 136 1.42 135 1.42 127 1.42
 299  0.652  0.164  0.500- 128 1.42 137 1.42 136 1.42
 300  0.720  0.249  0.500- 137 1.42 129 1.42 138 1.42
 301  0.787  0.335  0.500- 139 1.42 138 1.42 130 1.42
 302  0.855  0.421  0.500- 139 1.42 140 1.42 131 1.42
 303  0.922  0.507  0.500- 132 1.42 141 1.42 140 1.42
 304  0.990  0.593  0.500-   7 1.42 141 1.42 133 1.42
 305  0.671  0.096  0.500- 142 1.42 143 1.42 136 1.42
 306  0.738  0.182  0.500- 144 1.42 143 1.42 137 1.42
 307  0.806  0.268  0.500- 138 1.42 145 1.42 144 1.42
 308  0.873  0.354  0.500- 146 1.42 145 1.42 139 1.42
 309  0.941  0.440  0.500- 147 1.42 140 1.42 146 1.42
 310  0.008  0.526  0.500- 141 1.42 147 1.42  12 1.42
 311  0.757  0.115  0.500- 149 1.42 143 1.42 148 1.42
 312  0.824  0.200  0.500- 150 1.42 149 1.42 144 1.42
 313  0.892  0.286  0.500- 145 1.42 150 1.42 151 1.42
 314  0.959  0.372  0.500- 151 1.42 146 1.42 152 1.42
 315  0.027  0.458  0.500-  17 1.42 152 1.42 147 1.42
 316  0.775  0.047  0.500- 148 1.42 154 1.42 153 1.42
 317  0.843  0.133  0.500- 154 1.42 149 1.42 155 1.42
 318  0.910  0.219  0.500- 156 1.42 155 1.42 150 1.42
 319  0.978  0.305  0.500- 157 1.42 156 1.42 151 1.42
 320  0.045  0.391  0.500- 152 1.42  23 1.42 157 1.42
 321  0.861  0.065  0.500- 159 1.42 158 1.42 154 1.42
 322  0.928  0.151  0.500- 155 1.42 160 1.42 159 1.42
 323  0.996  0.237  0.500-  30 1.42 160 1.42 156 1.42
 324  0.947  0.084  0.500- 161 1.42 162 1.42 159 1.42
 325  0.014  0.170  0.500- 160 1.42 162 1.42  39 1.42
 326  0.033  0.102  0.500-  49 1.42 163 1.42 162 1.42
 327  0.012  0.724  0.333- 638 1.42 490 1.42 637 1.42
 328  0.031  0.810  0.333- 639 1.42 638 1.42 491 1.42
 329  0.049  0.896  0.333- 639 1.42 492 1.42 640 1.42
 330  0.067  0.982  0.333- 493 1.42 640 1.42 502 1.42
 331  0.006  0.362  0.333- 644 1.42 645 1.42 494 1.42
 332  0.025  0.448  0.333- 646 1.42 495 1.42 645 1.42
 333  0.043  0.534  0.333- 646 1.42 496 1.42 647 1.42
 334  0.061  0.620  0.333- 497 1.42 647 1.42 648 1.42
 335  0.080  0.706  0.333- 648 1.42 490 1.42 498 1.42
 336  0.098  0.791  0.333- 499 1.42 491 1.42 490 1.42
 337  0.117  0.877  0.333- 500 1.42 492 1.42 491 1.42
 338  0.135  0.963  0.333- 493 1.42 501 1.42 492 1.42
 339  0.000  0.000  0.333- 649 1.42 502 1.42 629 1.42
 340  0.018  0.086  0.333- 650 1.42 503 1.42 649 1.42
 341  0.037  0.172  0.333- 650 1.42 651 1.42 504 1.42
 342  0.055  0.258  0.333- 505 1.42 651 1.42 652 1.42
 343  0.074  0.344  0.333- 652 1.42 494 1.42 506 1.42
 344  0.092  0.429  0.333- 495 1.42 494 1.42 507 1.42
 345  0.110  0.515  0.333- 508 1.42 496 1.42 495 1.42
 346  0.129  0.601  0.333- 497 1.42 496 1.42 509 1.42
 347  0.147  0.687  0.333- 498 1.42 510 1.42 497 1.42
 348  0.166  0.773  0.333- 498 1.42 511 1.42 499 1.42
 349  0.184  0.859  0.333- 512 1.42 499 1.42 500 1.42
 350  0.202  0.945  0.333- 500 1.42 501 1.42 513 1.42
 351  0.086  0.067  0.333- 503 1.42 502 1.42 514 1.42
 352  0.104  0.153  0.333- 515 1.42 504 1.42 503 1.42
 353  0.123  0.239  0.333- 505 1.42 504 1.42 516 1.42
 354  0.141  0.325  0.333- 506 1.42 517 1.42 505 1.42
 355  0.160  0.411  0.333- 506 1.42 518 1.42 507 1.42
 356  0.178  0.497  0.333- 519 1.42 507 1.42 508 1.42
 357  0.196  0.583  0.333- 508 1.42 509 1.42 520 1.42
 358  0.215  0.669  0.333- 510 1.42 521 1.42 509 1.42
 359  0.233  0.755  0.333- 522 1.42 511 1.42 510 1.42
 360  0.252  0.840  0.333- 512 1.42 523 1.42 511 1.42
 361  0.270  0.926  0.333- 513 1.42 524 1.42 512 1.42
 362  0.153  0.049  0.333- 514 1.42 493 1.42 525 1.42
 363  0.172  0.135  0.333- 514 1.42 526 1.42 515 1.42
 364  0.190  0.221  0.333- 515 1.42 527 1.42 516 1.42
 365  0.209  0.307  0.333- 517 1.42 516 1.42 528 1.42
 366  0.227  0.393  0.333- 529 1.42 518 1.42 517 1.42
 367  0.245  0.479  0.333- 519 1.42 518 1.42 530 1.42
 368  0.264  0.564  0.333- 520 1.42 531 1.42 519 1.42
 369  0.282  0.650  0.333- 520 1.42 532 1.42 521 1.42
 370  0.301  0.736  0.333- 533 1.42 521 1.42 522 1.42
 371  0.319  0.822  0.333- 522 1.42 523 1.42 534 1.42
 372  0.337  0.908  0.333- 535 1.42 524 1.42 523 1.42
 373  0.356  0.994  0.333- 549 1.42 536 1.42 524 1.42
 374  0.221  0.031  0.333- 537 1.42 525 1.42 501 1.42
 375  0.239  0.117  0.333- 526 1.42 525 1.42 538 1.42
 376  0.258  0.202  0.333- 527 1.42 539 1.42 526 1.42
 377  0.276  0.288  0.333- 527 1.42 528 1.42 540 1.42
 378  0.294  0.374  0.333- 541 1.42 528 1.42 529 1.42
 379  0.313  0.460  0.333- 529 1.42 530 1.42 542 1.42
 380  0.331  0.546  0.333- 530 1.42 531 1.42 543 1.42
 381  0.350  0.632  0.333- 544 1.42 532 1.42 531 1.42
 382  0.368  0.718  0.333- 533 1.42 532 1.42 545 1.42
 383  0.387  0.804  0.333- 534 1.42 546 1.42 533 1.42
 384  0.405  0.890  0.333- 534 1.42 547 1.42 535 1.42
 385  0.423  0.975  0.333- 548 1.42 535 1.42 536 1.42
 386  0.288  0.012  0.333- 513 1.42 549 1.42 537 1.42
 387  0.307  0.098  0.333- 537 1.42 550 1.42 538 1.42
 388  0.325  0.184  0.333- 538 1.42 539 1.42 551 1.42
 389  0.344  0.270  0.333- 552 1.42 540 1.42 539 1.42
 390  0.362  0.356  0.333- 541 1.42 540 1.42 553 1.42
 391  0.380  0.442  0.333- 542 1.42 554 1.42 541 1.42
 392  0.399  0.528  0.333- 542 1.42 555 1.42 543 1.42
 393  0.417  0.613  0.333- 556 1.42 543 1.42 544 1.42
 394  0.436  0.699  0.333- 544 1.42 545 1.42 557 1.42
 395  0.454  0.785  0.333- 558 1.42 545 1.42 546 1.42
 396  0.472  0.871  0.333- 559 1.42 547 1.42 546 1.42
 397  0.491  0.957  0.333- 548 1.42 547 1.42 560 1.42
 398  0.374  0.080  0.333- 550 1.42 561 1.42 549 1.42
 399  0.393  0.166  0.333- 551 1.42 562 1.42 550 1.42
 400  0.411  0.252  0.333- 551 1.42 563 1.42 552 1.42
 401  0.429  0.337  0.333- 552 1.42 553 1.42 564 1.42
 402  0.448  0.423  0.333- 553 1.42 554 1.42 565 1.42
 403  0.466  0.509  0.333- 566 1.42 555 1.42 554 1.42
 404  0.485  0.595  0.333- 556 1.42 555 1.42 567 1.42
 405  0.503  0.681  0.333- 557 1.42 568 1.42 556 1.42
 406  0.521  0.767  0.333- 557 1.42 569 1.42 558 1.42
 407  0.540  0.853  0.333- 570 1.42 558 1.42 559 1.42
 408  0.558  0.939  0.333- 559 1.42 560 1.42 571 1.42
 409  0.442  0.061  0.333- 536 1.42 561 1.42 572 1.42
 410  0.460  0.147  0.333- 573 1.42 561 1.42 562 1.42
 411  0.479  0.233  0.333- 563 1.42 562 1.42 574 1.42
 412  0.497  0.319  0.333- 564 1.42 575 1.42 563 1.42
 413  0.515  0.405  0.333- 576 1.42 565 1.42 564 1.42
 414  0.534  0.491  0.333- 577 1.42 565 1.42 566 1.42
 415  0.552  0.577  0.333- 566 1.42 567 1.42 578 1.42
 416  0.571  0.663  0.333- 567 1.42 579 1.42 568 1.42
 417  0.589  0.748  0.333- 580 1.42 569 1.42 568 1.42
 418  0.607  0.834  0.333- 570 1.42 569 1.42 581 1.42
 419  0.626  0.920  0.333- 582 1.42 571 1.42 570 1.42
 420  0.509  0.043  0.333- 572 1.42 583 1.42 548 1.42
 421  0.528  0.129  0.333- 572 1.42 584 1.42 573 1.42
 422  0.546  0.215  0.333- 585 1.42 573 1.42 574 1.42
 423  0.564  0.301  0.333- 574 1.42 575 1.42 586 1.42
 424  0.583  0.387  0.333- 587 1.42 575 1.42 576 1.42
 425  0.601  0.472  0.333- 577 1.42 576 1.42 588 1.42
 426  0.620  0.558  0.333- 578 1.42 589 1.42 577 1.42
 427  0.638  0.644  0.333- 590 1.42 578 1.42 579 1.42
 428  0.656  0.730  0.333- 591 1.42 579 1.42 580 1.42
 429  0.675  0.816  0.333- 580 1.42 581 1.42 592 1.42
 430  0.693  0.902  0.333- 581 1.42 593 1.42 582 1.42
 431  0.712  0.988  0.333- 594 1.42 582 1.42 607 1.42
 432  0.577  0.025  0.333- 595 1.42 560 1.42 583 1.42
 433  0.595  0.110  0.333- 584 1.42 583 1.42 596 1.42
 434  0.613  0.196  0.333- 585 1.42 597 1.42 584 1.42
 435  0.632  0.282  0.333- 598 1.42 586 1.42 585 1.42
 436  0.650  0.368  0.333- 586 1.42 599 1.42 587 1.42
 437  0.669  0.454  0.333- 587 1.42 588 1.42 600 1.42
 438  0.687  0.540  0.333- 588 1.42 589 1.42 601 1.42
 439  0.706  0.626  0.333- 602 1.42 589 1.42 590 1.42
 440  0.724  0.712  0.333- 591 1.42 590 1.42 603 1.42
 441  0.742  0.798  0.333- 592 1.42 604 1.42 591 1.42
 442  0.761  0.883  0.333- 592 1.42 605 1.42 593 1.42
 443  0.779  0.969  0.333- 606 1.42 594 1.42 593 1.42
 444  0.644  0.006  0.333- 571 1.42 607 1.42 595 1.42
 445  0.663  0.092  0.333- 608 1.42 595 1.42 596 1.42
 446  0.681  0.178  0.333- 596 1.42 597 1.42 609 1.42
 447  0.699  0.264  0.333- 610 1.42 597 1.42 598 1.42
 448  0.718  0.350  0.333- 599 1.42 598 1.42 611 1.42
 449  0.736  0.436  0.333- 600 1.42 612 1.42 599 1.42
 450  0.755  0.521  0.333- 613 1.42 601 1.42 600 1.42
 451  0.773  0.607  0.333- 614 1.42 601 1.42 602 1.42
 452  0.791  0.693  0.333- 603 1.42 602 1.42 615 1.42
 453  0.810  0.779  0.333- 603 1.42 616 1.42 604 1.42
 454  0.828  0.865  0.333- 617 1.42 604 1.42 605 1.42
 455  0.847  0.951  0.333- 606 1.42 605 1.42 618 1.42
 456  0.730  0.074  0.333- 608 1.42 607 1.42 619 1.42
 457  0.748  0.160  0.333- 620 1.42 609 1.42 608 1.42
 458  0.767  0.245  0.333- 609 1.42 621 1.42 610 1.42
 459  0.785  0.331  0.333- 611 1.42 622 1.42 610 1.42
 460  0.804  0.417  0.333- 611 1.42 612 1.42 623 1.42
 461  0.822  0.503  0.333- 624 1.42 612 1.42 613 1.42
 462  0.840  0.589  0.333- 614 1.42 613 1.42 625 1.42
 463  0.859  0.675  0.333- 615 1.42 626 1.42 614 1.42
 464  0.877  0.761  0.333- 627 1.42 616 1.42 615 1.42
 465  0.896  0.847  0.333- 628 1.42 617 1.42 616 1.42
 466  0.914  0.933  0.333- 617 1.42 618 1.42 629 1.42
 467  0.798  0.055  0.333- 594 1.42 619 1.42 630 1.42
 468  0.816  0.141  0.333- 631 1.42 619 1.42 620 1.42
 469  0.834  0.227  0.333- 620 1.42 621 1.42 632 1.42
 470  0.853  0.313  0.333- 622 1.42 633 1.42 621 1.42
 471  0.871  0.399  0.333- 634 1.42 623 1.42 622 1.42
 472  0.890  0.485  0.333- 623 1.42 635 1.42 624 1.42
 473  0.908  0.571  0.333- 625 1.42 636 1.42 624 1.42
 474  0.926  0.656  0.333- 625 1.42 637 1.42 626 1.42
 475  0.945  0.742  0.333- 638 1.42 626 1.42 627 1.42
 476  0.963  0.828  0.333- 628 1.42 627 1.42 639 1.42
 477  0.982  0.914  0.333- 640 1.42 629 1.42 628 1.42
 478  0.865  0.037  0.333- 641 1.42 630 1.42 606 1.42
 479  0.883  0.123  0.333- 630 1.42 642 1.42 631 1.42
 480  0.902  0.209  0.333- 632 1.42 643 1.42 631 1.42
 481  0.920  0.294  0.333- 632 1.42 633 1.42 644 1.42
 482  0.939  0.380  0.333- 645 1.42 633 1.42 634 1.42
 483  0.957  0.466  0.333- 635 1.42 634 1.42 646 1.42
 484  0.975  0.552  0.333- 636 1.42 647 1.42 635 1.42
 485  0.994  0.638  0.333- 648 1.42 637 1.42 636 1.42
 486  0.933  0.018  0.333- 618 1.42 649 1.42 641 1.42
 487  0.951  0.104  0.333- 641 1.42 650 1.42 642 1.42
 488  0.969  0.190  0.333- 643 1.42 642 1.42 651 1.42
 489  0.988  0.276  0.333- 652 1.42 644 1.42 643 1.42
 490  0.063  0.740  0.333- 335 1.42 327 1.42 336 1.42
 491  0.082  0.826  0.333- 336 1.42 328 1.42 337 1.42
 492  0.100  0.912  0.333- 329 1.42 337 1.42 338 1.42
 493  0.119  0.998  0.333- 338 1.42 330 1.42 362 1.42
 494  0.057  0.378  0.333- 344 1.42 343 1.42 331 1.42
 495  0.076  0.464  0.333- 344 1.42 332 1.42 345 1.42
 496  0.094  0.550  0.333- 345 1.42 346 1.42 333 1.42
 497  0.112  0.636  0.333- 334 1.42 346 1.42 347 1.42
 498  0.131  0.722  0.333- 348 1.42 347 1.42 335 1.42
 499  0.149  0.808  0.333- 336 1.42 349 1.42 348 1.42
 500  0.168  0.894  0.333- 350 1.42 337 1.42 349 1.42
 501  0.186  0.980  0.333- 350 1.42 338 1.42 374 1.42
 502  0.051  0.016  0.333- 351 1.42 339 1.42 330 1.42
 503  0.070  0.102  0.333- 351 1.42 340 1.42 352 1.42
 504  0.088  0.188  0.333- 352 1.42 353 1.42 341 1.42
 505  0.106  0.274  0.333- 342 1.42 353 1.42 354 1.42
 506  0.125  0.360  0.333- 355 1.42 354 1.42 343 1.42
 507  0.143  0.446  0.333- 356 1.42 344 1.42 355 1.42
 508  0.162  0.532  0.333- 345 1.42 357 1.42 356 1.42
 509  0.180  0.618  0.333- 357 1.42 358 1.42 346 1.42
 510  0.198  0.703  0.333- 358 1.42 347 1.42 359 1.42
 511  0.217  0.789  0.333- 348 1.42 359 1.42 360 1.42
 512  0.235  0.875  0.333- 360 1.42 349 1.42 361 1.42
 513  0.254  0.961  0.333- 386 1.42 361 1.42 350 1.42
 514  0.137  0.084  0.333- 363 1.42 362 1.42 351 1.42
 515  0.155  0.170  0.333- 352 1.42 364 1.42 363 1.42
 516  0.174  0.256  0.333- 365 1.42 364 1.42 353 1.42
 517  0.192  0.342  0.333- 365 1.42 354 1.42 366 1.42
 518  0.211  0.427  0.333- 366 1.42 367 1.42 355 1.42
 519  0.229  0.513  0.333- 356 1.42 367 1.42 368 1.42
 520  0.247  0.599  0.333- 369 1.42 368 1.42 357 1.42
 521  0.266  0.685  0.333- 358 1.42 370 1.42 369 1.42
 522  0.284  0.771  0.333- 371 1.42 359 1.42 370 1.42
 523  0.303  0.857  0.333- 371 1.42 372 1.42 360 1.42
 524  0.321  0.943  0.333- 361 1.42 372 1.42 373 1.42
 525  0.205  0.065  0.333- 374 1.42 375 1.42 362 1.42
 526  0.223  0.151  0.333- 363 1.42 375 1.42 376 1.42
 527  0.241  0.237  0.333- 376 1.42 377 1.42 364 1.42
 528  0.260  0.323  0.333- 378 1.42 377 1.42 365 1.42
 529  0.278  0.409  0.333- 366 1.42 379 1.42 378 1.42
 530  0.297  0.495  0.333- 380 1.42 379 1.42 367 1.42
 531  0.315  0.581  0.333- 380 1.42 368 1.42 381 1.42
 532  0.333  0.667  0.333- 369 1.42 382 1.42 381 1.42
 533  0.352  0.753  0.333- 382 1.42 370 1.42 383 1.42
 534  0.370  0.838  0.333- 384 1.42 383 1.42 371 1.42
 535  0.389  0.924  0.333- 372 1.42 385 1.42 384 1.42
 536  0.407  0.010  0.333- 409 1.42 373 1.42 385 1.42
 537  0.272  0.047  0.333- 374 1.42 387 1.42 386 1.42
 538  0.290  0.133  0.333- 388 1.42 375 1.42 387 1.42
 539  0.309  0.219  0.333- 388 1.42 376 1.42 389 1.42
 540  0.327  0.305  0.333- 390 1.42 389 1.42 377 1.42
 541  0.346  0.391  0.333- 378 1.42 390 1.42 391 1.42
 542  0.364  0.476  0.333- 391 1.42 392 1.42 379 1.42
 543  0.382  0.562  0.333- 393 1.42 380 1.42 392 1.42
 544  0.401  0.648  0.333- 381 1.42 394 1.42 393 1.42
 545  0.419  0.734  0.333- 395 1.42 394 1.42 382 1.42
 546  0.438  0.820  0.333- 383 1.42 395 1.42 396 1.42
 547  0.456  0.906  0.333- 396 1.42 384 1.42 397 1.42
 548  0.474  0.992  0.333- 397 1.42 385 1.42 420 1.42
 549  0.339  0.029  0.333- 386 1.42 373 1.42 398 1.42
 550  0.358  0.115  0.333- 398 1.42 387 1.42 399 1.42
 551  0.376  0.200  0.333- 400 1.42 399 1.42 388 1.42
 552  0.395  0.286  0.333- 389 1.42 401 1.42 400 1.42
 553  0.413  0.372  0.333- 402 1.42 401 1.42 390 1.42
 554  0.431  0.458  0.333- 391 1.42 402 1.42 403 1.42
 555  0.450  0.544  0.333- 404 1.42 392 1.42 403 1.42
 556  0.468  0.630  0.333- 404 1.42 393 1.42 405 1.42
 557  0.487  0.716  0.333- 405 1.42 406 1.42 394 1.42
 558  0.505  0.802  0.333- 395 1.42 407 1.42 406 1.42
 559  0.524  0.888  0.333- 408 1.42 396 1.42 407 1.42
 560  0.542  0.973  0.333- 408 1.42 432 1.42 397 1.42
 561  0.425  0.096  0.333- 409 1.42 398 1.42 410 1.42
 562  0.444  0.182  0.333- 399 1.42 411 1.42 410 1.42
 563  0.462  0.268  0.333- 400 1.42 411 1.42 412 1.42
 564  0.481  0.354  0.333- 412 1.42 413 1.42 401 1.42
 565  0.499  0.440  0.333- 414 1.42 413 1.42 402 1.42
 566  0.517  0.526  0.333- 403 1.42 415 1.42 414 1.42
 567  0.536  0.611  0.333- 416 1.42 415 1.42 404 1.42
 568  0.554  0.697  0.333- 405 1.42 416 1.42 417 1.42
 569  0.573  0.783  0.333- 418 1.42 406 1.42 417 1.42
 570  0.591  0.869  0.333- 418 1.42 407 1.42 419 1.42
 571  0.609  0.955  0.333- 419 1.42 444 1.42 408 1.42
 572  0.493  0.078  0.333- 421 1.42 420 1.42 409 1.42
 573  0.511  0.164  0.333- 410 1.42 422 1.42 421 1.42
 574  0.530  0.249  0.333- 423 1.42 422 1.42 411 1.42
 575  0.548  0.335  0.333- 423 1.42 412 1.42 424 1.42
 576  0.566  0.421  0.333- 413 1.42 425 1.42 424 1.42
 577  0.585  0.507  0.333- 425 1.42 414 1.42 426 1.42
 578  0.603  0.593  0.333- 426 1.42 427 1.42 415 1.42
 579  0.622  0.679  0.333- 428 1.42 416 1.42 427 1.42
 580  0.640  0.765  0.333- 417 1.42 429 1.42 428 1.42
 581  0.658  0.851  0.333- 430 1.42 429 1.42 418 1.42
 582  0.677  0.937  0.333- 419 1.42 431 1.42 430 1.42
 583  0.560  0.059  0.333- 420 1.42 433 1.42 432 1.42
 584  0.579  0.145  0.333- 433 1.42 421 1.42 434 1.42
 585  0.597  0.231  0.333- 434 1.42 422 1.42 435 1.42
 586  0.616  0.317  0.333- 436 1.42 435 1.42 423 1.42
 587  0.634  0.403  0.333- 424 1.42 437 1.42 436 1.42
 588  0.652  0.489  0.333- 438 1.42 437 1.42 425 1.42
 589  0.671  0.575  0.333- 426 1.42 439 1.42 438 1.42
 590  0.689  0.661  0.333- 440 1.42 427 1.42 439 1.42
 591  0.708  0.746  0.333- 440 1.42 428 1.42 441 1.42
 592  0.726  0.832  0.333- 441 1.42 442 1.42 429 1.42
 593  0.744  0.918  0.333- 430 1.42 443 1.42 442 1.42
 594  0.763  0.004  0.333- 467 1.42 431 1.42 443 1.42
 595  0.628  0.041  0.333- 432 1.42 445 1.42 444 1.42
 596  0.646  0.127  0.333- 446 1.42 445 1.42 433 1.42
 597  0.665  0.213  0.333- 447 1.42 446 1.42 434 1.42
 598  0.683  0.299  0.333- 435 1.42 448 1.42 447 1.42
 599  0.701  0.384  0.333- 448 1.42 436 1.42 449 1.42
 600  0.720  0.470  0.333- 449 1.42 437 1.42 450 1.42
 601  0.738  0.556  0.333- 451 1.42 450 1.42 438 1.42
 602  0.757  0.642  0.333- 439 1.42 452 1.42 451 1.42
 603  0.775  0.728  0.333- 453 1.42 452 1.42 440 1.42
 604  0.793  0.814  0.333- 441 1.42 454 1.42 453 1.42
 605  0.812  0.900  0.333- 455 1.42 442 1.42 454 1.42
 606  0.830  0.986  0.333- 455 1.42 443 1.42 478 1.42
 607  0.695  0.022  0.333- 444 1.42 431 1.42 456 1.42
 608  0.714  0.108  0.333- 456 1.42 445 1.42 457 1.42
 609  0.732  0.194  0.333- 457 1.42 458 1.42 446 1.42
 610  0.751  0.280  0.333- 447 1.42 459 1.42 458 1.42
 611  0.769  0.366  0.333- 460 1.42 459 1.42 448 1.42
 612  0.787  0.452  0.333- 449 1.42 461 1.42 460 1.42
 613  0.806  0.538  0.333- 462 1.42 450 1.42 461 1.42
 614  0.824  0.624  0.333- 462 1.42 451 1.42 463 1.42
 615  0.843  0.710  0.333- 463 1.42 464 1.42 452 1.42
 616  0.861  0.795  0.333- 453 1.42 464 1.42 465 1.42
 617  0.879  0.881  0.333- 454 1.42 466 1.42 465 1.42
 618  0.898  0.967  0.333- 486 1.42 466 1.42 455 1.42
 619  0.781  0.090  0.333- 468 1.42 467 1.42 456 1.42
 620  0.800  0.176  0.333- 457 1.42 469 1.42 468 1.42
 621  0.818  0.262  0.333- 469 1.42 458 1.42 470 1.42
 622  0.836  0.348  0.333- 470 1.42 459 1.42 471 1.42
 623  0.855  0.434  0.333- 472 1.42 471 1.42 460 1.42
 624  0.873  0.519  0.333- 461 1.42 472 1.42 473 1.42
 625  0.892  0.605  0.333- 474 1.42 473 1.42 462 1.42
 626  0.910  0.691  0.333- 463 1.42 475 1.42 474 1.42
 627  0.928  0.777  0.333- 476 1.42 464 1.42 475 1.42
 628  0.947  0.863  0.333- 476 1.42 465 1.42 477 1.42
 629  0.965  0.949  0.333- 477 1.42 339 1.42 466 1.42
 630  0.849  0.072  0.333- 478 1.42 479 1.42 467 1.42
 631  0.867  0.157  0.333- 468 1.42 479 1.42 480 1.42
 632  0.885  0.243  0.333- 481 1.42 480 1.42 469 1.42
 633  0.904  0.329  0.333- 482 1.42 481 1.42 470 1.42
 634  0.922  0.415  0.333- 471 1.42 483 1.42 482 1.42
 635  0.941  0.501  0.333- 483 1.42 472 1.42 484 1.42
 636  0.959  0.587  0.333- 484 1.42 473 1.42 485 1.42
 637  0.978  0.673  0.333- 485 1.42 327 1.42 474 1.42
 638  0.996  0.759  0.333- 475 1.42 327 1.42 328 1.42
 639  0.014  0.845  0.333- 329 1.42 328 1.42 476 1.42
 640  0.033  0.930  0.333- 477 1.42 330 1.42 329 1.42
 641  0.916  0.053  0.333- 478 1.42 487 1.42 486 1.42
 642  0.935  0.139  0.333- 488 1.42 479 1.42 487 1.42
 643  0.953  0.225  0.333- 488 1.42 480 1.42 489 1.42
 644  0.971  0.311  0.333- 489 1.42 331 1.42 481 1.42
 645  0.990  0.397  0.333- 482 1.42 331 1.42 332 1.42
 646  0.008  0.483  0.333- 333 1.42 332 1.42 483 1.42
 647  0.027  0.569  0.333- 334 1.42 484 1.42 333 1.42
 648  0.045  0.654  0.333- 335 1.42 485 1.42 334 1.42
 649  0.984  0.035  0.333- 486 1.42 339 1.42 340 1.42
 650  0.002  0.121  0.333- 341 1.42 340 1.42 487 1.42
 651  0.020  0.207  0.333- 342 1.42 341 1.42 488 1.42
 652  0.039  0.292  0.333- 489 1.42 343 1.42 342 1.42
 
  LATTYP: Found a hexagonal cell.
 ALAT       =    31.4965470000
 C/A-ratio  =     0.6667397540
  
  Lattice vectors:
  
 A1 = (  31.4965470000,   0.0000000000,   0.0000000000)
 A2 = ( -15.7482730000,  27.2768100000,   0.0000000000)
 A3 = (   0.0000000000,   0.0000000000,  21.0000000000)


Analysis of symmetry for initial positions (statically):
=====================================================================
 Subroutine PRICEL returns:
 Original cell was already a primitive cell.
 

 Routine SETGRP: Setting up the symmetry group for a 
 hexagonal supercell.


 Subroutine GETGRP returns: Found  3 space group operations
 (whereof  3 operations were pure point group operations)
 out of a pool of 24 trial point group operations.


The static configuration has the point symmetry C_3 .


Analysis of symmetry for dynamics (positions and initial velocities):
=====================================================================
 Subroutine PRICEL returns:
 Original cell was already a primitive cell.
 

 Routine SETGRP: Setting up the symmetry group for a 
 hexagonal supercell.


 Subroutine GETGRP returns: Found  3 space group operations
 (whereof  3 operations were pure point group operations)
 out of a pool of 24 trial point group operations.


The dynamic configuration has the point symmetry C_3 .


 Subroutine INISYM returns: Found  3 space group operations
 (whereof  3 operations are pure point group operations),
 and found     1 'primitive' translations


----------------------------------------------------------------------------------------

                                     Primitive cell                                     

  volume of cell :   18041.6319

  direct lattice vectors                    reciprocal lattice vectors
    31.496547000  0.000000000  0.000000000     0.031749512  0.018330589  0.000000000
   -15.748273000 27.276810000  0.000000000     0.000000000  0.036661178  0.000000000
     0.000000000  0.000000000 21.000000000     0.000000000  0.000000000  0.047619048

  length of vectors
    31.496547000 31.496546894 21.000000000     0.036661178  0.036661178  0.047619048

  position of ions in fractional coordinates (direct lattice)
     0.053174878  0.916162516  0.500028431
     0.071568186  0.848678484  0.500003446
     0.139070608  0.934558610  0.500002266
     0.089978134  0.781182741  0.500038557
     0.157453019  0.867062087  0.500019021
     0.224949795  0.952968644  0.500034906
     0.040888546  0.627799904  0.500024191
     0.108382197  0.713701636  0.500036923
     0.175877705  0.799602131  0.500017801
     0.243358244  0.885484164  0.500045927
     0.310832331  0.971374133  0.499994625
     0.059311549  0.560341114  0.500012999
     0.126798491  0.646221047  0.500039964
     0.194264652  0.732109176  0.500003161
     0.261765406  0.817989446  0.500002346
     0.329238477  0.903882220  0.500039014
     0.077699453  0.492844193  0.500013979
     0.145196474  0.578724076  0.499996600
     0.212679431  0.664619995  0.500041276
     0.280155804  0.750499873  0.500031171
     0.347646971  0.836407059  0.500033413
     0.415144741  0.922300547  0.500013979
     0.096117780  0.425356257  0.500039014
     0.163592941  0.511239911  0.500033413
     0.231080161  0.597139863  0.500039449
     0.298578077  0.683038822  0.500006375
     0.366059702  0.768919839  0.500039449
     0.433527602  0.854803526  0.499996600
     0.501029565  0.940688451  0.500012999
     0.047031356  0.271981151  0.500034906
     0.114515836  0.357874080  0.500045927
     0.182010554  0.443775959  0.500002346
     0.249500127  0.529654930  0.500031171
     0.316961178  0.615539255  0.500006375
     0.384460745  0.701421923  0.500006375
     0.451940564  0.787320569  0.500041276
     0.519421556  0.873201509  0.500039964
     0.586911359  0.959111454  0.500024191
     0.065441390  0.204511999  0.500002266
     0.132937913  0.290391932  0.500019021
     0.200397869  0.376275574  0.500017801
     0.267890824  0.462155475  0.500003161
     0.335380005  0.548059436  0.500041276
     0.402860137  0.633940298  0.500039449
     0.470345070  0.719844196  0.500031171
     0.537844525  0.805735348  0.500003161
     0.605319438  0.891617803  0.500036923
     0.672791416  0.977498111  0.499994300
     0.083837484  0.137011362  0.500028431
     0.151321516  0.222889702  0.500003446
     0.218817259  0.308794393  0.500038557
     0.286298364  0.394680562  0.500036923
     0.353778953  0.480578444  0.500039964
     0.421275924  0.566472398  0.499996600
     0.488760089  0.652353029  0.500033413
     0.556224041  0.738234594  0.500002346
     0.623724426  0.824122295  0.500017801
     0.691205607  0.910021866  0.500038557
     0.034753110  0.983626049  0.500006723
     0.102251512  0.069530428  0.500035062
     0.169737264  0.155422537  0.500032900
     0.237215891  0.241311636  0.500047245
     0.304706695  0.327208584  0.499994300
     0.372200096  0.413088641  0.500024191
     0.439658886  0.498970435  0.500012999
     0.507155807  0.584855259  0.500013979
     0.574643743  0.670761523  0.500039014
     0.642125920  0.756641756  0.500045927
     0.709608068  0.842546981  0.500019021
     0.777110298  0.928431814  0.500003446
     0.120655255  0.002047093  0.500050164
     0.188137188  0.087943805  0.499996641
     0.255636649  0.173823860  0.500012733
     0.323096654  0.259708739  0.500024490
     0.390587092  0.345589940  0.500013499
     0.458080671  0.431498794  0.500037503
     0.525565148  0.517381269  0.500041049
     0.593042431  0.603280938  0.500028711
     0.660541801  0.689167669  0.499994625
     0.728018849  0.775050205  0.500034906
     0.795488001  0.860929392  0.500002266
     0.862988638  0.946825122  0.500028431
     0.206537107  0.020445277  0.500033911
     0.274019369  0.106324037  0.500015417
     0.341516125  0.192234311  0.500035528
     0.409003878  0.278121347  0.500033391
     0.476479199  0.364014134  0.500038602
     0.543971764  0.449903825  0.499989920
     0.611459287  0.535786242  0.500030237
     0.678922532  0.621666778  0.500010994
     0.746420840  0.707558710  0.500024950
     0.813908170  0.793462893  0.500033911
     0.881391838  0.879344745  0.500050164
     0.948872939  0.965246890  0.500006723
     0.292441290  0.038862130  0.500024950
     0.359917956  0.124749534  0.500045184
     0.427401748  0.210638613  0.499989925
     0.494897391  0.296520744  0.500021128
     0.562359664  0.382405155  0.500021727
     0.629852431  0.468291279  0.500024520
     0.697345454  0.554200988  0.500031984
     0.764831578  0.640082044  0.500045184
     0.832305667  0.725980631  0.500015417
     0.899806617  0.811862812  0.499996641
     0.967277915  0.897748488  0.500035062
     0.378333222  0.057255754  0.500010994
     0.445799012  0.143143466  0.500031984
     0.513284876  0.229026032  0.500026260
     0.580780460  0.314938925  0.500030223
     0.648270554  0.400821431  0.500035910
     0.715740156  0.486715124  0.500026260
     0.783236865  0.572598252  0.499989925
     0.850718186  0.658483875  0.500035528
     0.918187211  0.744363351  0.500012733
     0.985685273  0.830262736  0.500032900
     0.396719062  0.989761493  0.500028711
     0.464213758  0.075673045  0.500030237
     0.531708721  0.161561152  0.500024520
     0.599178569  0.247449123  0.500035910
     0.666667000  0.333333000  0.499987554
     0.734158465  0.419219540  0.500030223
     0.801623353  0.505102609  0.500021128
     0.869117469  0.590996122  0.500033391
     0.936611085  0.676903346  0.500024490
     0.004095745  0.762784109  0.500047245
     0.482618731  0.008183880  0.500041049
     0.550096175  0.094068939  0.499989920
     0.617594845  0.179954510  0.500021727
     0.685061075  0.265841535  0.500030223
     0.752550877  0.351729446  0.500035910
     0.820045490  0.437640336  0.500021727
     0.887535934  0.523520801  0.500038602
     0.955002848  0.609412908  0.500013499
     0.022501889  0.695293305  0.499994300
     0.568501206  0.026581877  0.500037503
     0.635985866  0.112464066  0.500038602
     0.703479256  0.198376647  0.500021128
     0.770973968  0.284259844  0.500026260
     0.838438848  0.370147569  0.500024520
     0.905931061  0.456028236  0.499989920
     0.973418123  0.541919329  0.500037503
     0.654410060  0.044997152  0.500013499
     0.721878653  0.130882531  0.500033391
     0.789361387  0.216763135  0.499989925
     0.856856534  0.302654546  0.500031984
     0.924326955  0.388540713  0.500030237
     0.991816120  0.474434852  0.500041049
     0.740291261  0.063388915  0.500024490
     0.807765689  0.149281814  0.500035528
     0.875250466  0.235168422  0.500045184
     0.942744246  0.321077468  0.500010994
     0.010238507  0.406957569  0.500028711
     0.758688364  0.995904255  0.500047245
     0.826176140  0.081812789  0.500012733
     0.893675963  0.167694333  0.500015417
     0.961137870  0.253579160  0.500024950
     0.028625867  0.339458199  0.499994625
     0.844577463  0.014314727  0.500032900
     0.912056195  0.100193383  0.499996641
     0.979554723  0.186091830  0.500033911
     0.930469572  0.032722085  0.500035062
     0.997952907  0.118608162  0.500050164
     0.016373951  0.051127061  0.500006723
     0.069530645  0.967280689  0.499996219
     0.087935993  0.899798901  0.499977119
     0.155419236  0.985684954  0.499999653
     0.106334958  0.832308185  0.499992708
     0.173826339  0.918198623  0.499987814
     0.241308686  0.004091534  0.500014609
     0.057260460  0.678933919  0.499984786
     0.124745294  0.764827618  0.500013222
     0.192230534  0.850717272  0.499995161
     0.259712520  0.936605409  0.499990507
     0.327200188  0.022497193  0.499974672
     0.075666681  0.611455452  0.499995658
     0.143147017  0.697341842  0.499991727
     0.210634390  0.783232602  0.499971509
     0.278119270  0.869119724  0.500003571
     0.345600240  0.955007537  0.499991384
     0.094069068  0.543967844  0.499971469
     0.161556801  0.629856891  0.499998837
     0.229035704  0.715743389  0.500000763
     0.296524642  0.801633634  0.499990411
     0.364008884  0.887528931  0.500009017
     0.431494109  0.973416981  0.499993238
     0.112471069  0.476480953  0.500009017
     0.179959575  0.562370024  0.499988825
     0.247444494  0.648263553  0.500006961
     0.314930748  0.734154255  0.499992313
     0.382410449  0.820040425  0.499988825
     0.449899776  0.905930932  0.499971469
     0.517381961  0.991819105  0.500009524
     0.063394591  0.323106110  0.499990507
     0.130880276  0.408999546  0.500003571
     0.198366366  0.494891008  0.499990411
     0.265845745  0.580776493  0.499992313
     0.333333000  0.666667000  0.499969488
     0.400819060  0.752555506  0.500006961
     0.468300090  0.838443199  0.499998837
     0.535788771  0.924333319  0.499995658
     0.603272920  0.010228866  0.500001966
     0.081801377  0.255627717  0.499987814
     0.149282728  0.341513263  0.499995161
     0.216767398  0.427401788  0.499971509
     0.284256611  0.513291315  0.500000763
     0.351736447  0.599180940  0.500006961
     0.419223507  0.685069252  0.499992313
     0.486708685  0.770964296  0.500000763
     0.554193825  0.856852983  0.499991727
     0.621673459  0.942739540  0.499984786
     0.689163814  0.028629654  0.499975714
     0.100201099  0.188137092  0.499977119
     0.167691815  0.274027772  0.499992708
     0.235172382  0.359917677  0.500013222
     0.302658158  0.445806175  0.499991727
     0.370143109  0.531699910  0.499998837
     0.437629976  0.617589551  0.499988825
     0.505108992  0.703475358  0.499990411
     0.572598212  0.789365610  0.499971509
     0.640082323  0.875254706  0.500013222
     0.707565407  0.961143987  0.499996572
     0.051127171  0.034763180  0.499985190
     0.118609212  0.120654798  0.500016542
     0.186094481  0.206543352  0.499993377
     0.253578580  0.292434593  0.499996572
     0.321066081  0.378326541  0.499984786
     0.388544548  0.464211229  0.499995658
     0.456032156  0.550100224  0.499971469
     0.523519047  0.635991116  0.500009017
     0.591000454  0.721880730  0.500003571
     0.658486737  0.807769466  0.499995161
     0.725972228  0.893665042  0.499992708
     0.793456648  0.979551130  0.499993377
     0.137013304  0.053170344  0.499994564
     0.204501245  0.139062753  0.499980482
     0.271981547  0.224948041  0.499999148
     0.339465840  0.310836186  0.499975714
     0.406955946  0.396727080  0.500001966
     0.474437144  0.482618039  0.500009524
     0.541922872  0.568505891  0.499993238
     0.609407297  0.654399760  0.499991384
     0.676893890  0.740287480  0.499990507
     0.744372283  0.826173661  0.499987814
     0.811862908  0.912064007  0.499977119
     0.879345202  0.997954414  0.500016542
     0.222900006  0.071570918  0.499983318
     0.290391893  0.157462284  0.499994146
     0.357873022  0.243354862  0.500013372
     0.425357935  0.329242451  0.499993158
     0.492842152  0.415135165  0.499990422
     0.560329717  0.501024834  0.499985718
     0.627807297  0.586910117  0.499995266
     0.695297006  0.672799812  0.499974672
     0.762782848  0.758691314  0.500014609
     0.830265718  0.844580764  0.499999653
     0.897751043  0.930469355  0.499996219
     0.965236820  0.016363991  0.499985190
     0.308794024  0.089980534  0.499994110
     0.376277411  0.175870752  0.499990067
     0.443765137  0.261760665  0.499979924
     0.511244648  0.347646382  0.500001290
     0.578730713  0.433534959  0.499976711
     0.646218667  0.519426181  0.500009345
     0.713701781  0.605318364  0.500004388
     0.781185510  0.691205976  0.499994110
     0.848670912  0.777099994  0.499983318
     0.916156041  0.862986696  0.499994564
     0.983636009  0.948872829  0.499985190
     0.394681636  0.108383417  0.500004388
     0.462164955  0.194271180  0.499982737
     0.529654297  0.280162690  0.500002216
     0.597137635  0.366055805  0.500007775
     0.664621559  0.451942071  0.499993362
     0.732106225  0.537835045  0.499982737
     0.799593341  0.623722589  0.499990067
     0.867071391  0.709608107  0.499994146
     0.934561508  0.795498755  0.499980482
     0.002045586  0.881390788  0.500016542
     0.413089883  0.040897180  0.499995266
     0.480573819  0.126791486  0.500009345
     0.548057929  0.212679487  0.499993362
     0.615540330  0.298569890  0.499983572
     0.683029560  0.384459670  0.499983572
     0.750507393  0.470345703  0.500002216
     0.817995528  0.556234863  0.499979924
     0.885481840  0.642126978  0.500013372
     0.952966494  0.728018453  0.499999148
     0.020448870  0.813905519  0.499993377
     0.498975166  0.059304883  0.499985718
     0.566465041  0.145195754  0.499976711
     0.633944195  0.231081830  0.500007775
     0.701430110  0.316970440  0.499983572
     0.768918170  0.402862365  0.500007775
     0.836401735  0.488755352  0.500001290
     0.903884517  0.574642065  0.499993158
     0.971370346  0.660534160  0.499975714
     0.038856013  0.746421420  0.499996572
     0.584864835  0.077706988  0.499990422
     0.652353618  0.163598265  0.500001290
     0.719837310  0.249492607  0.500002216
     0.787320513  0.335378441  0.499993362
     0.854804246  0.421269287  0.499976711
     0.922293012  0.507157848  0.499990422
     0.989771134  0.593044054  0.500001966
     0.670757549  0.096115483  0.499993158
     0.738239335  0.182004472  0.499979924
     0.805728820  0.267893775  0.499982737
     0.873208514  0.353781333  0.500009345
     0.940695117  0.439670283  0.499985718
     0.008180895  0.525562856  0.500009524
     0.756645138  0.114518160  0.500013372
     0.824129248  0.200406659  0.499990067
     0.891616583  0.286298219  0.500004388
     0.959102820  0.372192703  0.499995266
     0.026583019  0.458077128  0.499993238
     0.775051959  0.047033506  0.499999148
     0.842537716  0.132928609  0.499994146
     0.910019466  0.218814490  0.499994110
     0.977502807  0.304702994  0.499974672
     0.044992463  0.390592703  0.499991384
     0.860937247  0.065438492  0.499980482
     0.928429082  0.151329088  0.499983318
     0.995908466  0.237217152  0.500014609
     0.946829656  0.083843959  0.499994564
     0.014315046  0.169734282  0.499999653
     0.032719311  0.102248957  0.499996219
     0.012265983  0.723926364  0.333330668
     0.030675899  0.809815748  0.333324606
     0.049074550  0.895694681  0.333321049
     0.067487320  0.981596106  0.333324100
     0.006130524  0.361962268  0.333337689
     0.024541674  0.447854276  0.333322629
     0.042939165  0.533733081  0.333323483
     0.061351484  0.619627925  0.333320578
     0.079749580  0.705524260  0.333325340
     0.098166325  0.791415980  0.333310178
     0.116567734  0.877303733  0.333339546
     0.134967516  0.963193090  0.333326185
     0.000000000  0.000000000  0.333340612
     0.018403894  0.085891214  0.333324100
     0.036806910  0.171774426  0.333326185
     0.055213091  0.257660052  0.333319669
     0.073619150  0.343561181  0.333327196
     0.092023014  0.429451421  0.333308412
     0.110438494  0.515341896  0.333331919
     0.128830127  0.601228271  0.333333748
     0.147242512  0.687119041  0.333324099
     0.165638571  0.772995875  0.333325575
     0.184050566  0.858893548  0.333322451
     0.202446961  0.944786909  0.333319669
     0.085883397  0.067487798  0.333316653
     0.104305319  0.153379870  0.333321049
     0.122696267  0.239265001  0.333339546
     0.141106452  0.325157018  0.333322451
     0.159506414  0.411036092  0.333328183
     0.177913042  0.496926054  0.333321695
     0.196315178  0.582824282  0.333325370
     0.214725890  0.668713853  0.333306195
     0.233135087  0.754605361  0.333335386
     0.251529678  0.840493586  0.333328183
     0.269943030  0.926380850  0.333327196
     0.153375078  0.049077685  0.333327917
     0.171775274  0.134959287  0.333323721
     0.190184252  0.220860151  0.333324606
     0.208584020  0.306749345  0.333310178
     0.227004125  0.392642696  0.333325575
     0.245394639  0.478529726  0.333335386
     0.263807970  0.564421466  0.333322323
     0.282204170  0.650297787  0.333330192
     0.300613496  0.736192030  0.333322323
     0.319012012  0.822086958  0.333321695
     0.337428407  0.907976986  0.333308412
     0.355831744  0.993869476  0.333337689
     0.220866799  0.030678484  0.333313454
     0.239263814  0.116566584  0.333339715
     0.257669531  0.202458804  0.333321907
     0.276073636  0.288339620  0.333330668
     0.294475740  0.374224319  0.333325340
     0.312880959  0.460124471  0.333324099
     0.331286147  0.546012037  0.333306195
     0.349702213  0.631906383  0.333330192
     0.368093617  0.717795830  0.333330192
     0.386509104  0.803684822  0.333325370
     0.404903402  0.889561506  0.333331919
     0.423312603  0.975458326  0.333322629
     0.288338376  0.012259829  0.333327476
     0.306748818  0.098159531  0.333323095
     0.325146568  0.184048694  0.333314196
     0.343567702  0.269942776  0.333318548
     0.361961203  0.355832403  0.333336918
     0.380372075  0.441723559  0.333320578
     0.398771729  0.527601856  0.333333748
     0.417175718  0.613490896  0.333325370
     0.435578534  0.699386504  0.333322323
     0.453987963  0.785274110  0.333306195
     0.472398144  0.871169873  0.333333748
     0.490794915  0.957060835  0.333323483
     0.374231897  0.079760615  0.333322804
     0.392642136  0.165644068  0.333331185
     0.411037870  0.251524330  0.333329293
     0.429447055  0.337423759  0.333323556
     0.447846934  0.423309780  0.333309422
     0.466266919  0.509205085  0.333323483
     0.484658104  0.595096598  0.333331919
     0.503073946  0.680987988  0.333321695
     0.521470274  0.766864913  0.333335386
     0.539875529  0.852757488  0.333324099
     0.558276441  0.938648516  0.333320578
     0.441709808  0.061347363  0.333317938
     0.460129945  0.147239467  0.333312638
     0.478527024  0.233133488  0.333336509
     0.496934724  0.319024503  0.333318586
     0.515340330  0.404905834  0.333334818
     0.533737983  0.490791390  0.333328892
     0.552145724  0.576687397  0.333322629
     0.570548579  0.662571593  0.333308412
     0.588963908  0.748470322  0.333328183
     0.607357304  0.834361429  0.333325575
     0.625775681  0.920250420  0.333325340
     0.509208610  0.042947592  0.333328892
     0.527602069  0.128825574  0.333333284
     0.546012411  0.214723675  0.333322815
     0.564410081  0.300609449  0.333314061
     0.582829755  0.386503635  0.333317998
     0.601223504  0.472397931  0.333333284
     0.619637555  0.558290192  0.333317938
     0.638037732  0.644168256  0.333337689
     0.656438819  0.730056970  0.333327196
     0.674842982  0.815949434  0.333322451
     0.693250655  0.901833675  0.333310178
     0.711660380  0.987734017  0.333330668
     0.576690220  0.024537154  0.333309422
     0.595094166  0.110434496  0.333334818
     0.613496365  0.196326120  0.333317998
     0.631908169  0.282210004  0.333333329
     0.650301835  0.368091831  0.333333329
     0.668711264  0.453987589  0.333322815
     0.687110522  0.539870055  0.333312638
     0.705527717  0.625768103  0.333322804
     0.723921453  0.711661624  0.333327476
     0.742339948  0.797553039  0.333319669
     0.760734999  0.883432266  0.333339546
     0.779139849  0.969324101  0.333324606
     0.644167597  0.006128800  0.333336918
     0.662576241  0.092023295  0.333323556
     0.680975497  0.177909222  0.333318586
     0.699390551  0.263800632  0.333314061
     0.717789996  0.349698165  0.333333329
     0.736199368  0.435589919  0.333314061
     0.754606464  0.521472976  0.333336509
     0.773001932  0.607357864  0.333331185
     0.791409713  0.693251182  0.333323095
     0.809811685  0.779133201  0.333313454
     0.828225574  0.865032484  0.333326185
     0.846620130  0.950925450  0.333321049
     0.730057224  0.073625926  0.333318548
     0.748475670  0.159513540  0.333329293
     0.766866512  0.245393536  0.333336509
     0.785276325  0.331288736  0.333322815
     0.803673880  0.417170245  0.333317998
     0.822090778  0.503065276  0.333318586
     0.840486460  0.588962130  0.333329293
     0.858902126  0.674853432  0.333314196
     0.877303770  0.760736186  0.333339715
     0.895702608  0.846624922  0.333327917
     0.914108786  0.932512680  0.333324100
     0.797541196  0.055210727  0.333321907
     0.815951306  0.141097874  0.333314196
     0.834355932  0.226998068  0.333331185
     0.852760533  0.312889478  0.333312638
     0.871174426  0.398776496  0.333333284
     0.889565504  0.484659670  0.333334818
     0.907976705  0.570552945  0.333323556
     0.926374074  0.656432298  0.333318548
     0.944789273  0.742330469  0.333321907
     0.963184013  0.828224726  0.333323721
     0.981604401  0.914116603  0.333316653
     0.865040713  0.036815987  0.333323721
     0.883433416  0.122696230  0.333339715
     0.901840469  0.208590287  0.333323095
     0.920239385  0.294472283  0.333322804
     0.938652637  0.380362445  0.333317938
     0.957052408  0.466262017  0.333328892
     0.975462846  0.552153066  0.333309422
     0.993871200  0.638038797  0.333336918
     0.932512202  0.018395599  0.333316653
     0.950922315  0.104297392  0.333327917
     0.969321516  0.190188315  0.333313454
     0.987740171  0.276078547  0.333327476
     0.063392102  0.740284685  0.333330034
     0.081802875  0.826172569  0.333329067
     0.100198872  0.912061652  0.333337578
     0.118607452  0.997952627  0.333298937
     0.057260146  0.378326540  0.333332774
     0.075664178  0.464207595  0.333322665
     0.094070420  0.550100144  0.333342818
     0.112466192  0.635987257  0.333308331
     0.130886881  0.721881982  0.333317342
     0.149281653  0.807772523  0.333324612
     0.167693507  0.893670471  0.333324480
     0.186091747  0.979547815  0.333327266
     0.051127638  0.016367884  0.333330938
     0.069526696  0.102244229  0.333324246
     0.087938348  0.188137220  0.333337578
     0.106329529  0.274024036  0.333324480
     0.124750140  0.359918176  0.333304034
     0.143148651  0.445807445  0.333328015
     0.161556379  0.531706679  0.333321924
     0.179959291  0.617588254  0.333330625
     0.198365869  0.703473269  0.333327714
     0.216765682  0.789363719  0.333342636
     0.235168036  0.875249860  0.333304034
     0.253584969  0.961144244  0.333325305
     0.137018605  0.083844771  0.333327177
     0.155418578  0.169739988  0.333321604
     0.173827431  0.255630306  0.333329067
     0.192227477  0.341509130  0.333324612
     0.210636281  0.427401963  0.333342636
     0.229029348  0.513285928  0.333318109
     0.247450076  0.599180415  0.333312480
     0.265845744  0.685070912  0.333326639
     0.284257580  0.770970652  0.333318109
     0.302657794  0.856851349  0.333328015
     0.321066393  0.942739854  0.333332774
     0.204502901  0.065438409  0.333335711
     0.222895879  0.151324504  0.333332849
     0.241310378  0.237215611  0.333301729
     0.259715315  0.323106418  0.333330034
     0.278118018  0.409004900  0.333317342
     0.296526731  0.494892600  0.333327714
     0.314929088  0.580774833  0.333326639
     0.333333000  0.666667000  0.333344003
     0.351730339  0.752549924  0.333312480
     0.370150301  0.838443621  0.333321924
     0.388543417  0.924335822  0.333322665
     0.406957718  0.010234257  0.333315300
     0.271980009  0.047037753  0.333320734
     0.290393906  0.132932404  0.333322454
     0.308791333  0.218811629  0.333325954
     0.327201964  0.304704887  0.333340400
     0.345594273  0.390587201  0.333326857
     0.364012743  0.476479935  0.333308331
     0.382411746  0.562371037  0.333330625
     0.400819585  0.648269661  0.333312480
     0.419225167  0.734154256  0.333326639
     0.437628963  0.820040709  0.333330625
     0.456030723  0.905929580  0.333342818
     0.474432003  0.991812542  0.333309672
     0.339462797  0.028627123  0.333339305
     0.357871617  0.114514300  0.333303335
     0.376281656  0.200406913  0.333330589
     0.394679717  0.286303081  0.333315713
     0.413093581  0.372195332  0.333322393
     0.431492355  0.458075974  0.333326549
     0.449899856  0.543969277  0.333342818
     0.468293321  0.629849699  0.333321924
     0.486714072  0.715742420  0.333318109
     0.505107400  0.801634131  0.333327714
     0.523520065  0.887533808  0.333308331
     0.541924026  0.973416381  0.333326549
     0.425357357  0.096113804  0.333327395
     0.443766252  0.182006175  0.333337166
     0.462160066  0.267889772  0.333334572
     0.480574476  0.353777329  0.333307599
     0.498977451  0.439669646  0.333333608
     0.517380540  0.525567997  0.333309672
     0.535792405  0.611456583  0.333322665
     0.554192555  0.697342206  0.333328015
     0.572598037  0.783234318  0.333342636
     0.590995100  0.869113119  0.333317342
     0.609412799  0.955007072  0.333326857
     0.492847450  0.077706887  0.333329679
     0.511241944  0.163600234  0.333317032
     0.529658372  0.249496786  0.333315242
     0.548057236  0.335378121  0.333326800
     0.566465638  0.421271922  0.333338921
     0.584859437  0.507152550  0.333329679
     0.603276539  0.593042282  0.333315300
     0.621673460  0.678933607  0.333332774
     0.640081824  0.764831964  0.333304034
     0.658490870  0.850718347  0.333324612
     0.676893582  0.936607898  0.333330034
     0.560330354  0.059307806  0.333333608
     0.578728078  0.145193716  0.333338921
     0.597135028  0.231076434  0.333310053
     0.615544281  0.316970432  0.333335165
     0.633941406  0.402864972  0.333310053
     0.652358290  0.488758056  0.333317032
     0.670756448  0.574642643  0.333327395
     0.689164326  0.660537203  0.333339305
     0.707559276  0.746415031  0.333325305
     0.725975964  0.832306493  0.333324480
     0.744369694  0.918197125  0.333329067
     0.762784389  0.004094767  0.333301729
     0.627804668  0.040898248  0.333322393
     0.646222671  0.126796148  0.333307599
     0.664621879  0.212679115  0.333326800
     0.683029568  0.298573849  0.333335165
     0.701426151  0.384455719  0.333335165
     0.719837414  0.470341628  0.333315242
     0.738239923  0.556233748  0.333337166
     0.756642683  0.642128383  0.333303335
     0.775057745  0.728019991  0.333320734
     0.793456067  0.813908253  0.333327266
     0.811862780  0.899801128  0.333337578
     0.830260012  0.985678591  0.333321604
     0.695295113  0.022497077  0.333340400
     0.713696919  0.108376636  0.333315713
     0.732110228  0.194270293  0.333334572
     0.750503214  0.280162586  0.333315242
     0.768923566  0.366058594  0.333310053
     0.787320885  0.451942764  0.333326800
     0.805729707  0.537839934  0.333334572
     0.824125257  0.623718344  0.333330589
     0.842539498  0.709606094  0.333322454
     0.860935509  0.795497099  0.333335711
     0.879345175  0.881392548  0.333298937
     0.897755771  0.967281467  0.333324246
     0.781188371  0.089980704  0.333325954
     0.799593087  0.175874743  0.333330589
     0.817993825  0.261760077  0.333337166
     0.836399766  0.347641710  0.333317032
     0.854806284  0.433534362  0.333338921
     0.873203852  0.519425524  0.333307599
     0.891623364  0.605320283  0.333315713
[...]
    4.460976    1.106723    1.106723    1.474280    0.008518    0.000000   -0.000000
    4.609675    1.299512    1.299512    1.476223    0.016424    0.000000   -0.000000
    4.758375    1.549695    1.549695    1.479113   -0.002204   -0.000000    0.000000
    4.907074    1.731305    1.731305    1.484217   -0.033658   -0.000000    0.000000
    5.055773    1.602120    1.602120    1.489175    0.000962    0.000000    0.000000
    5.204472    1.391916    1.391916    1.489314    0.017602    0.000000   -0.000000
    5.353172    1.390965    1.390965    1.494022    0.022943    0.000000    0.000000
    5.501871    1.343433    1.343433    1.496075   -0.003982    0.000000    0.000000
    5.650570    1.091035    1.091035    1.499862   -0.021822    0.000000   -0.000000
    5.799269    1.091634    1.091634    1.508243   -0.002718    0.000000   -0.000000
    5.947968    0.504835    0.504835    1.515062    0.030103    0.000000   -0.000000
    6.096668    0.161893    0.161893    1.519367   -0.002826   -0.000000    0.000000
    6.245367    0.134753    0.134753    1.527845   -0.020848   -0.000000    0.000000
    6.394066    0.175762    0.175762    1.538413   -0.017323   -0.000000    0.000000
    6.542765    0.235014    0.235014    1.550088   -0.010670   -0.000000    0.000000
    6.691464    0.298593    0.298593    1.562671    0.002797   -0.000000    0.000000
    6.840164    0.361871    0.361871    1.576152    0.015165   -0.000000    0.000000
    6.988863    0.423498    0.423498    1.590596    0.015186   -0.000000    0.000000
    7.137562    0.483611    0.483611    1.606107    0.008989   -0.000000    0.000000
    7.286261    0.540355    0.540355    1.622804    0.004979    0.000000   -0.000000
    7.434960    0.594017    0.594017    1.640831   -0.001379    0.000000   -0.000000
    7.583660    0.645594    0.645594    1.660375   -0.006460    0.000000   -0.000000
    7.732359    0.695647    0.695647    1.681657   -0.010543    0.000000   -0.000000
    7.881058    0.743810    0.743810    1.704958   -0.005260    0.000000   -0.000000
    8.029757    0.790226    0.790226    1.730620    0.004377   -0.000000    0.000000
    8.178457    0.835724    0.835724    1.758988    0.003184   -0.000000    0.000000
    8.327156    0.879262    0.879262    1.790413   -0.001026   -0.000000    0.000000
    8.475855    0.919634    0.919634    1.825517   -0.002469   -0.000000    0.000000
    8.624554    0.957245    0.957245    1.865123   -0.002018   -0.000000    0.000000
    8.773253    0.995276    0.995276    1.910306   -0.000962   -0.000000    0.000000
    8.921953    1.033343    1.033343    1.962527   -0.001330   -0.000000    0.000000
    9.070652    1.071282    1.071282    2.023871    0.000143   -0.000000    0.000000
    9.219351    1.109539    1.109539    2.097206    0.002250   -0.000000    0.000000
    9.368050    1.148252    1.148252    2.186952    0.004728   -0.000000    0.000000
    9.516749    1.187441    1.187441    2.301037    0.004703   -0.000000    0.000000
    9.665449    1.227659    1.227659    2.454046    0.001600    0.000000   -0.000000
    9.814148    1.269537    1.269537    2.676113   -0.000954    0.000000   -0.000000
    9.962847    1.313402    1.313402    3.021032   -0.002881    0.000000   -0.000000
   10.111546    1.358877    1.358877    3.164042   -0.003164    0.000000   -0.000000
   10.260245    1.407023    1.407023    2.615354   -0.002470    0.000000   -0.000000
   10.408945    1.459748    1.459748    2.173751   -0.000288    0.000000   -0.000000
   10.557644    1.516711    1.516711    1.878752    0.001728   -0.000000   -0.000000
   10.706343    1.583148    1.583148    1.830821    0.000911   -0.000000   -0.000000
   10.855042    1.642197    1.642197    1.656936   -0.000117   -0.000000    0.000000
   11.003742    1.719700    1.719700    1.499431   -0.000388   -0.000000    0.000000
   11.152441    1.836204    1.836204    1.402344   -0.000267   -0.000000    0.000000
   11.301140    1.987354    1.987354    1.302335    0.000171    0.000000   -0.000000
   11.449839    2.009881    2.009881    1.276653    0.000460   -0.000000   -0.000000
   11.598538    1.927198    1.927198    1.131714    0.000152   -0.000000    0.000000
   11.747238    1.886330    1.886330    0.649831   -0.000201    0.000000    0.000000
   11.895937    1.876184    1.876184    0.677015   -0.000140    0.000000    0.000000
   12.044636    1.880049    1.880049    0.965507    0.000367   -0.000000    0.000000
   12.193335    1.897045    1.897045    1.188463   -0.000212    0.000000   -0.000000
   12.342034    1.913669    1.913669    1.215623   -0.001260   -0.000000   -0.000000
   12.490734    1.929374    1.929374    0.996846   -0.001063   -0.000000   -0.000000
   12.639433    1.937236    1.937236    0.543372    0.007268   -0.000000   -0.000000
   12.788132    1.956901    1.956901    0.677180   -0.000870    0.000000   -0.000000
   12.936831    1.994768    1.994768    0.834040   -0.007503    0.000000   -0.000000
   13.085530    2.100928    2.100928    1.029015   -0.001550   -0.000000    0.000000
   13.234230    2.219201    2.219201    1.146111   -0.002571   -0.000000    0.000000
   13.382929    2.078414    2.078414    0.997971    0.005011   -0.000000   -0.000000
   13.531628    1.888464    1.888464    0.954604    0.003595    0.000000   -0.000000
   13.680327    1.606009    1.606009    1.062994   -0.000793    0.000000   -0.000000
   13.829026    1.048545    1.048545    1.093976   -0.006850   -0.000000    0.000000
   13.977726    0.772330    0.772330    0.731307   -0.006303    0.000000    0.000000
   14.126425    0.655708    0.655708    0.164758    0.008077    0.000000    0.000000
   14.275124    0.536028    0.536028   -0.190348    0.007669    0.000000   -0.000000
   14.423823    0.330771    0.330771   -0.245331   -0.011198    0.000000   -0.000000
   14.572523    0.201927    0.201927   -0.479654   -0.004495    0.000000   -0.000000
   14.721222    0.141698    0.141698   -0.519362    0.008232   -0.000000   -0.000000
   14.869921    0.081666    0.081666   -0.345818    0.008491   -0.000000   -0.000000
   15.018620    0.031967    0.031967   -0.175981   -0.006297   -0.000000   -0.000000
   15.167319   -0.002640   -0.002640   -0.042162   -0.013817   -0.000000   -0.000000
   15.316019   -0.024368   -0.024368    0.078595   -0.000841   -0.000000    0.000000
   15.464718   -0.037148   -0.037148    0.178507    0.012398   -0.000000    0.000000
   15.613417   -0.043992   -0.043992    0.267487    0.014948    0.000000    0.000000
   15.762116   -0.047845   -0.047845    0.317829    0.006318    0.000000    0.000000
   15.910815   -0.048197   -0.048197    0.273170   -0.011542    0.000000    0.000000
   16.059515   -0.042624   -0.042624    0.335333   -0.014204    0.000000    0.000000
   16.208214   -0.035368   -0.035368    0.402413   -0.011094   -0.000000   -0.000000
   16.356913   -0.024644   -0.024644    0.397326   -0.006798    0.000000   -0.000000
   16.505612   -0.012955   -0.012955    0.364828   -0.001656   -0.000000    0.000000
   16.654311    0.001614    0.001614    0.391144    0.001844    0.000000    0.000000
   16.803011    0.018301    0.018301    0.427973    0.001085    0.000000   -0.000000
   16.951710    0.038877    0.038877    0.463263    0.000539   -0.000000   -0.000000
   17.100409    0.060878    0.060878    0.494682    0.000024   -0.000000   -0.000000
   17.249108    0.083232    0.083232    0.522413    0.000107   -0.000000   -0.000000
   17.397808    0.105823    0.105823    0.547178    0.002076   -0.000000    0.000000
   17.546507    0.129725    0.129725    0.569367    0.003313    0.000000   -0.000000
   17.695206    0.157671    0.157670    0.589397    0.002666    0.000000    0.000000
   17.843905    0.187720    0.187720    0.608219    0.001874    0.000000    0.000000
   17.992604    0.215997    0.215997    0.626630    0.001752    0.000000    0.000000
   18.141304    0.243221    0.243221    0.643632    0.001110    0.000000    0.000000
   18.290003    0.268018    0.268018    0.659333   -0.000038    0.000000    0.000000
   18.438702    0.292462    0.292462    0.674146   -0.000820    0.000000    0.000000
   18.587401    0.317455    0.317455    0.688295   -0.000967    0.000000    0.000000
   18.736100    0.338511    0.338511    0.701963   -0.000309   -0.000000    0.000000
   18.884800    0.357435    0.357435    0.715643    0.000188   -0.000000    0.000000
   19.033499    0.376096    0.376096    0.724616    0.000183   -0.000000    0.000000
   19.182198    0.391444    0.391444    0.732124   -0.000166    0.000000   -0.000000
   19.330897    0.405013    0.405013    0.739306   -0.000323    0.000000   -0.000000
   19.479596    0.420966    0.420966    0.740424   -0.000341    0.000000    0.000000
   19.628296    0.435153    0.435153    0.740577   -0.000072    0.000000   -0.000000
   19.776995    0.449409    0.449409    0.750868    0.000124   -0.000000   -0.000000
   19.925694    0.462892    0.462892    0.765888   -0.000056   -0.000000    0.000000
   20.074393    0.476800    0.476800    0.779640    0.000091   -0.000000    0.000000
   20.223093    0.491774    0.491774    0.791318    0.000233   -0.000000    0.000000
   20.371792    0.507816    0.507816    0.799590    0.000114   -0.000000    0.000000
   20.520491    0.524198    0.524198    0.806372   -0.000112   -0.000000    0.000000
   20.669190    0.539916    0.539916    0.792570    0.000021   -0.000000   -0.000000
   20.817889    0.554362    0.554362    0.738142    0.000149    0.000000   -0.000000
   20.966589    0.567667    0.567667    0.708724   -0.000221    0.000000    0.000000
   21.115288    0.580181    0.580181    0.704211   -0.000286    0.000000    0.000000
   21.263987    0.592266    0.592266    0.703262    0.000048    0.000000   -0.000000
   21.412686    0.604483    0.604483    0.721299    0.000031    0.000000   -0.000000
   21.561385    0.616215    0.616215    0.740001    0.000003    0.000000   -0.000000
   21.710085    0.626886    0.626886    0.754391    0.000021    0.000000    0.000000
   21.858784    0.636708    0.636708    0.765855    0.000011    0.000000    0.000000
   22.007483    0.646111    0.646111    0.775443    0.000003    0.000000    0.000000
   22.156182    0.655084    0.655084    0.783703    0.000002   -0.000000    0.000000
   22.304881    0.663680    0.663680    0.791001    0.000001   -0.000000    0.000000
   22.453581    0.671870    0.671870    0.797597    0.000001   -0.000000    0.000000
   22.602280    0.679712    0.679712    0.803593   -0.000000   -0.000000    0.000000
   22.750979    0.687269    0.687269    0.808937   -0.000000   -0.000000    0.000000
   22.899678    0.694541    0.694541    0.813555   -0.000000   -0.000000    0.000000
   23.048377    0.701520    0.701520    0.817339   -0.000000   -0.000000    0.000000
   23.197077    0.708203    0.708203    0.820776   -0.000001    0.000000    0.000000
   23.345776    0.714611    0.714611    0.823750    0.000001    0.000000   -0.000000
   23.494475    0.720767    0.720767    0.826744   -0.000001    0.000000   -0.000000
   23.643174    0.726666    0.726666    0.829895    0.000001    0.000000    0.000000
   23.791874    0.731710    0.731710    0.832996    0.000001    0.000000    0.000000
   23.940573    0.736712    0.736712    0.836172    0.000002   -0.000000    0.000000
   24.089272    0.742091    0.742091    0.839893   -0.000005   -0.000000    0.000000
   24.237971    0.746800    0.746800    0.844164   -0.000001    0.000000    0.000000
   24.386670    0.751537    0.751537    0.847830    0.000004    0.000000    0.000000
   24.535370    0.756259    0.756259    0.850842    0.000001   -0.000000    0.000000
   24.684069    0.760816    0.760816    0.853749   -0.000000   -0.000000    0.000000
   24.832768    0.764647    0.764647    0.855863   -0.000005   -0.000000    0.000000
   24.981467    0.767486    0.767486    0.856937   -0.000007    0.000000   -0.000000
   25.130166    0.770500    0.770500    0.859254    0.000004    0.000000   -0.000000
   25.278866    0.773253    0.773253    0.860733    0.000020   -0.000000    0.000000
   25.427565    0.776732    0.776732    0.861974    0.000001   -0.000000    0.000000
   25.576264    0.780685    0.780685    0.865024   -0.000004    0.000000    0.000000
   25.724963    0.784783    0.784783    0.868431   -0.000009   -0.000000    0.000000
   25.873662    0.788607    0.788607    0.870897   -0.000023   -0.000000    0.000000
   26.022362    0.792279    0.792279    0.873102   -0.000003   -0.000000    0.000000
   26.171061    0.795991    0.795991    0.876058    0.000033    0.000000    0.000000
   26.319760    0.799093    0.799093    0.878590    0.000004    0.000000   -0.000000
   26.468459    0.801811    0.801811    0.880125   -0.000065    0.000000   -0.000000
   26.617159    0.804305    0.804305    0.881565   -0.000004   -0.000000    0.000000
   26.765858    0.806538    0.806538    0.881376    0.000165    0.000000    0.000000
   26.914557    0.808924    0.808924    0.879936    0.000075    0.000000    0.000000
   27.063256    0.811247    0.811247    0.882363   -0.000078    0.000000    0.000000
   27.211955    0.813985    0.813985    0.885152   -0.000011    0.000000    0.000000
   27.360655    0.816311    0.816311    0.887669    0.000030    0.000000    0.000000
   27.509354    0.818465    0.818465    0.889879    0.000033   -0.000000    0.000000
   27.658053    0.821021    0.821021    0.891440    0.000013   -0.000000    0.000000
   27.806752    0.823456    0.823456    0.891731   -0.000020   -0.000000    0.000000
   27.955451    0.825903    0.825903    0.890921    0.000027   -0.000000    0.000000
   28.104151    0.828788    0.828788    0.892106    0.000008   -0.000000    0.000000
   28.252850    0.831561    0.831561    0.894505   -0.000002    0.000000   -0.000000
   28.401549    0.833725    0.833725    0.895954    0.000001    0.000000   -0.000000
   28.550248    0.835963    0.835963    0.896885   -0.000011   -0.000000    0.000000
   28.698947    0.838422    0.838422    0.898384    0.000000   -0.000000    0.000000
   28.847647    0.840757    0.840757    0.900105    0.000002    0.000000    0.000000
   28.996346    0.842992    0.842992    0.901883    0.000006   -0.000000    0.000000
   29.145045    0.845140    0.845140    0.903626   -0.000007   -0.000000    0.000000
   29.293744    0.847029    0.847029    0.904977   -0.000008    0.000000    0.000000
   29.442443    0.848863    0.848863    0.905248    0.000003   -0.000000   -0.000000
   29.591143    0.850687    0.850687    0.906509   -0.000000   -0.000000    0.000000
   29.739842    0.852456    0.852456    0.908068   -0.000000   -0.000000    0.000000
   29.888541    0.854184    0.854184    0.909494    0.000001   -0.000000    0.000000
   30.037240    0.856029    0.856029    0.910815   -0.000003   -0.000000    0.000000
   30.185940    0.857863    0.857863    0.912067    0.000002   -0.000000    0.000000
   30.334639    0.859604    0.859604    0.913267    0.000002   -0.000000    0.000000
   30.483338    0.861341    0.861341    0.914426   -0.000002   -0.000000    0.000000
   30.632037    0.863119    0.863119    0.915548    0.000002   -0.000000    0.000000
   30.780736    0.864895    0.864895    0.916621    0.000001   -0.000000    0.000000
   30.929436    0.866618    0.866618    0.917665    0.000000   -0.000000    0.000000
   31.078135    0.868283    0.868283    0.918701    0.000000   -0.000000    0.000000
   31.226834    0.869900    0.869900    0.919710    0.000000   -0.000000    0.000000
   31.375533    0.871475    0.871475    0.920694    0.000000   -0.000000    0.000000
   31.524232    0.873012    0.873012    0.921656    0.000000   -0.000000    0.000000
   31.672932    0.874515    0.874515    0.922595    0.000000   -0.000000    0.000000
   31.821631    0.875985    0.875985    0.923514    0.000000   -0.000000    0.000000
   31.970330    0.877425    0.877425    0.924414    0.000000   -0.000000    0.000000
   32.119029    0.878835    0.878835    0.925295    0.000000   -0.000000    0.000000
   32.267728    0.880217    0.880217    0.926158    0.000000   -0.000000    0.000000
   32.416428    0.881572    0.881572    0.927004    0.000000   -0.000000    0.000000
   32.565127    0.882901    0.882901    0.927834    0.000000   -0.000000    0.000000
   32.713826    0.884205    0.884205    0.928647    0.000000   -0.000000    0.000000
   32.862525    0.885484    0.885484    0.929444    0.000000   -0.000000    0.000000
   33.011225    0.886740    0.886740    0.930227    0.000000   -0.000000    0.000000
   33.159924    0.887973    0.887973    0.930995    0.000000   -0.000000    0.000000
   33.308623    0.889184    0.889184    0.931749    0.000000   -0.000000    0.000000
   33.457322    0.890373    0.890373    0.932489    0.000000   -0.000000    0.000000
   33.606021    0.891542    0.891542    0.933216    0.000000   -0.000000    0.000000
   33.754721    0.892690    0.892690    0.933930    0.000000   -0.000000    0.000000
   33.903420    0.893818    0.893818    0.934632    0.000000   -0.000000    0.000000
   34.052119    0.894927    0.894927    0.935321    0.000000   -0.000000    0.000000
   34.200818    0.896017    0.896017    0.935998    0.000000   -0.000000    0.000000
   34.349517    0.897089    0.897089    0.936664    0.000000   -0.000000    0.000000
   34.498217    0.898143    0.898143    0.937319    0.000000   -0.000000    0.000000
   34.646916    0.899179    0.899179    0.937962    0.000000   -0.000000    0.000000
   34.795615    0.900199    0.900199    0.938595    0.000000   -0.000000    0.000000
   34.944314    0.901202    0.901202    0.939217    0.000000   -0.000000    0.000000
   35.093013    0.902189    0.902189    0.939830    0.000000   -0.000000    0.000000
   35.241713    0.903159    0.903159    0.940432    0.000000   -0.000000    0.000000
   35.390412    0.904115    0.904115    0.941024    0.000000   -0.000000    0.000000
   35.539111    0.905056    0.905056    0.941607    0.000000   -0.000000    0.000000
   35.687810    0.905981    0.905981    0.942181    0.000000   -0.000000    0.000000
   35.836510    0.906893    0.906893    0.942746    0.000000   -0.000000    0.000000
   35.985209    0.907790    0.907790    0.943302    0.000000   -0.000000    0.000000
   36.133908    0.908673    0.908673    0.943849    0.000000   -0.000000    0.000000
   36.282607    0.909543    0.909543    0.944388    0.000000   -0.000000    0.000000
   36.431306    0.910400    0.910400    0.944919    0.000000   -0.000000    0.000000
   36.580006    0.911244    0.911244    0.945441    0.000000   -0.000000    0.000000
   36.728705    0.912076    0.912076    0.945956    0.000000   -0.000000    0.000000
   36.877404    0.912895    0.912895    0.946463    0.000000   -0.000000    0.000000
   37.026103    0.913702    0.913702    0.946962    0.000000   -0.000000    0.000000
 
 The outermost node in the dielectric function lies at epsilon=  16.6


--------------------------------------------------------------------------------------------------------


    OPTICS:  cpu time    345.4576: real time    351.5931
    4ORBIT:  cpu time      0.0000: real time      0.0000

 total amount of memory used by VASP MPI-rank0   343042. kBytes
=======================================================================

   base      :      30000. kBytes
   nonl-proj :      99860. kBytes
   fftplans  :       7452. kBytes
   grid      :      12284. kBytes
   one-center:         36. kBytes
   wavefun   :     193410. kBytes
 
  
  
 General timing and accounting informations for this job:
 ========================================================
  
                  Total CPU time used (sec):     8182.110
                            User time (sec):     7918.041
                          System time (sec):      264.068
                         Elapsed time (sec):    11573.517
  
                   Maximum memory used (kb):     7014652.
                   Average memory used (kb):          N/A
  
                          Minor page faults:       758533
                          Major page faults:          149
                 Voluntary context switches:      8045696
