 vasp.6.3.0 20Jan22 (build May 12 2022 16:34:25) complex                        
  
 executed on GNU/Linux-IFC-IntelM date 2022.11.11  14:31:11
 running  448 mpi-ranks, with    2 threads/rank
 distrk:  each k-point on   32 cores,   14 groups
 distr:  one band on NCORE=   1 cores,   32 groups


--------------------------------------------------------------------------------------------------------


 INCAR:
   SYSTEM = BN/gr
   ISTART = 1
   KPAR = 14
   ENCUT = 400
   PREC = Accurate
   EDIFF = 1E-8
   ISMEAR = 0
   SIGMA = 0.1
   NELMIN = 2
   NELM = 100
   NBANDS = 32
   LCHARG = .F.
   LWAVE = .F.
   IVDW = 11
   ALGO = CHI
   LRPA = .T.
   NOMEGA = 200
   OMEGAMAX = 5
   CSHIFT = 0.100
   NEDOS = 2000

 POTCAR:    PAW_PBE N 08Apr2002                   
 POTCAR:    PAW_PBE B 06Sep2000                   
 POTCAR:    PAW_PBE C 08Apr2002                   
 POTCAR:    PAW_PBE N 08Apr2002                   
   VRHFIN =N: s2p3                                                                                  
   LEXCH  = PE                                                                                      
   EATOM  =   264.5486 eV,   19.4438 Ry                                                             
                                                                                                    
   TITEL  = PAW_PBE N 08Apr2002                                                                     
   LULTRA =        F    use ultrasoft PP ?                                                          
   IUNSCR =        1    unscreen: 0-lin 1-nonlin 2-no                                               
   RPACOR =    1.200    partial core radius                                                         
   POMASS =   14.001; ZVAL   =    5.000    mass and valenz                                          
   RCORE  =    1.500    outmost cutoff radius                                                       
   RWIGS  =    1.400; RWIGS  =    0.741    wigner-seitz radius (au A)                               
   ENMAX  =  400.000; ENMIN  =  300.000 eV                                                          
   ICORE  =        2    local potential                                                             
   LCOR   =        T    correct aug charges                                                         
   LPAW   =        T    paw PP                                                                      
   EAUG   =  627.112                                                                                
   DEXC   =    0.000                                                                                
   RMAX   =    1.529    core radius for proj-oper                                                   
   RAUG   =    1.300    factor for augmentation sphere                                              
   RDEP   =    1.514    radius for radial grids                                                     
   RDEPT  =    1.338    core radius for aug-charge                                                  
                                                                                                    
   Atomic configuration                                                                             
    4 entries                                                                                       
     n  l   j            E        occ.                                                              
     1  0  0.50      -384.7179   2.0000                                                             
     2  0  0.50       -18.5828   2.0000                                                             
     2  1  0.50        -7.0898   3.0000                                                             
     3  2  1.50        -6.8029   0.0000                                                             
   Description                                                                                      
     l       E           TYP  RCUT    TYP  RCUT                                                     
     0    -18.5828119     23  1.200                                                                 
     0    -13.5018863     23  1.200                                                                 
     1     -7.0897853     23  1.500                                                                 
     1      9.5240782     23  1.500                                                                 
     2     -6.8029130      7  1.500                                                                 
  local pseudopotential read in
  partial core-charges read in
  partial kinetic energy density read in
  atomic valenz-charges read in
  non local Contribution for L=           0  read in
    real space projection operators read in
  non local Contribution for L=           0  read in
    real space projection operators read in
  non local Contribution for L=           1  read in
    real space projection operators read in
  non local Contribution for L=           1  read in
    real space projection operators read in
    PAW grid and wavefunctions read in
 
   number of l-projection  operators is LMAX  =           4
   number of lm-projection operators is LMMAX =           8
 
 POTCAR:    PAW_PBE B 06Sep2000                   
   VRHFIN =B: s2p1                                                                                  
   LEXCH  = PE                                                                                      
   EATOM  =    71.1703 eV,    5.2309 Ry                                                             
                                                                                                    
   TITEL  = PAW_PBE B 06Sep2000                                                                     
   LULTRA =        F    use ultrasoft PP ?                                                          
   IUNSCR =        1    unscreen: 0-lin 1-nonlin 2-no                                               
   RPACOR =    1.200    partial core radius                                                         
   POMASS =   10.811; ZVAL   =    3.000    mass and valenz                                          
   RCORE  =    1.700    outmost cutoff radius                                                       
   RWIGS  =    1.710; RWIGS  =    0.905    wigner-seitz radius (au A)                               
   ENMAX  =  318.614; ENMIN  =  238.960 eV                                                          
   ICORE  =        2    local potential                                                             
   LCOR   =        T    correct aug charges                                                         
   LPAW   =        T    paw PP                                                                      
   EAUG   =  535.514                                                                                
   DEXC   =    0.000                                                                                
   RMAX   =    1.732    core radius for proj-oper                                                   
   RAUG   =    1.300    factor for augmentation sphere                                              
   RDEP   =    1.757    radius for radial grids                                                     
   RDEPT  =    1.436    core radius for aug-charge                                                  
                                                                                                    
   Atomic configuration                                                                             
    4 entries                                                                                       
     n  l   j            E        occ.                                                              
     1  0  0.50      -180.5896   2.0000                                                             
     2  0  0.50        -9.4431   2.0000                                                             
     2  1  0.50        -3.6068   1.0000                                                             
     3  2  1.50        -4.0817   0.0000                                                             
   Description                                                                                      
     l       E           TYP  RCUT    TYP  RCUT                                                     
     0     -9.4430752     23  1.500                                                                 
     0      0.8675899     23  1.500                                                                 
     1     -3.6067955     23  1.700                                                                 
     1      6.1086146     23  1.700                                                                 
     2     -4.0817478      7  1.700                                                                 
  local pseudopotential read in
  partial core-charges read in
  partial kinetic energy density read in
  atomic valenz-charges read in
  non local Contribution for L=           0  read in
    real space projection operators read in
  non local Contribution for L=           0  read in
    real space projection operators read in
  non local Contribution for L=           1  read in
    real space projection operators read in
  non local Contribution for L=           1  read in
    real space projection operators read in
    PAW grid and wavefunctions read in
 
   number of l-projection  operators is LMAX  =           4
   number of lm-projection operators is LMMAX =           8
 
 POTCAR:    PAW_PBE C 08Apr2002                   
   VRHFIN =C: s2p2                                                                                  
   LEXCH  = PE                                                                                      
   EATOM  =   147.1560 eV,   10.8157 Ry                                                             
                                                                                                    
   TITEL  = PAW_PBE C 08Apr2002                                                                     
   LULTRA =        F    use ultrasoft PP ?                                                          
   IUNSCR =        1    unscreen: 0-lin 1-nonlin 2-no                                               
   RPACOR =    1.200    partial core radius                                                         
   POMASS =   12.011; ZVAL   =    4.000    mass and valenz                                          
   RCORE  =    1.500    outmost cutoff radius                                                       
   RWIGS  =    1.630; RWIGS  =    0.863    wigner-seitz radius (au A)                               
   ENMAX  =  400.000; ENMIN  =  300.000 eV                                                          
   ICORE  =        2    local potential                                                             
   LCOR   =        T    correct aug charges                                                         
   LPAW   =        T    paw PP                                                                      
   EAUG   =  644.873                                                                                
   DEXC   =    0.000                                                                                
   RMAX   =    1.529    core radius for proj-oper                                                   
   RAUG   =    1.300    factor for augmentation sphere                                              
   RDEP   =    1.501    radius for radial grids                                                     
   RDEPT  =    1.300    core radius for aug-charge                                                  
                                                                                                    
   Atomic configuration                                                                             
    4 entries                                                                                       
     n  l   j            E        occ.                                                              
     1  0  0.50      -273.3789   2.0000                                                             
     2  0  0.50       -13.7508   2.0000                                                             
     2  1  0.50        -5.2854   2.0000                                                             
     3  2  1.50        -5.4423   0.0000                                                             
   Description                                                                                      
     l       E           TYP  RCUT    TYP  RCUT                                                     
     0    -13.7508458     23  1.200                                                                 
     0     -8.2022199     23  1.200                                                                 
     1     -5.2854383     23  1.500                                                                 
     1     34.0145650     23  1.500                                                                 
     2     -5.4423304      7  1.500                                                                 
  local pseudopotential read in
  partial core-charges read in
  partial kinetic energy density read in
  atomic valenz-charges read in
  non local Contribution for L=           0  read in
    real space projection operators read in
  non local Contribution for L=           0  read in
    real space projection operators read in
  non local Contribution for L=           1  read in
    real space projection operators read in
  non local Contribution for L=           1  read in
    real space projection operators read in
    PAW grid and wavefunctions read in
 
   number of l-projection  operators is LMAX  =           4
   number of lm-projection operators is LMMAX =           8
 
  PAW_PBE N 08Apr2002                   :
 energy of atom  1       EATOM= -264.5486
 kinetic energy error for atom=    0.0736 (will be added to EATOM!!)
  PAW_PBE B 06Sep2000                   :
 energy of atom  2       EATOM=  -71.1703
 kinetic energy error for atom=    0.0020 (will be added to EATOM!!)
  PAW_PBE C 08Apr2002                   :
 energy of atom  3       EATOM= -147.1560
 kinetic energy error for atom=    0.0288 (will be added to EATOM!!)
 
 
 POSCAR: AA stacking at Gr lc
  positions in direct lattice
  No initial velocities read in
 -----------------------------------------------------------------------------
|                                                                             |
|           W    W    AA    RRRRR   N    N  II  N    N   GGGG   !!!           |
|           W    W   A  A   R    R  NN   N  II  NN   N  G    G  !!!           |
|           W    W  A    A  R    R  N N  N  II  N N  N  G       !!!           |
|           W WW W  AAAAAA  RRRRR   N  N N  II  N  N N  G  GGG   !            |
|           WW  WW  A    A  R   R   N   NN  II  N   NN  G    G                |
|           W    W  A    A  R    R  N    N  II  N    N   GGGG   !!!           |
|                                                                             |
|     The default for ENCUTGWSOFT is different in this version of VASP.       |
|     If you wish to obtain identical results as using pre vasp.6.3           |
|     please manually set ENCUTGWSOFT =266.667 in the INCAR file.             |
|                                                                             |
 -----------------------------------------------------------------------------

 exchange correlation table for  LEXCH =        8
   RHO(1)=    0.500       N(1)  =     2000
   RHO(2)=  100.500       N(2)  =     4000
 


--------------------------------------------------------------------------------------------------------


 ion  position               nearest neighbor table
   1  0.667  0.333  0.509-   2 1.44   2 1.44   2 1.44
   2  0.333  0.667  0.508-   1 1.44   1 1.44   1 1.44
   3  0.667  0.333  0.355-   4 1.44   4 1.44   4 1.44
   4  0.333  0.667  0.355-   3 1.44   3 1.44   3 1.44
 
  LATTYP: Found a hexagonal cell.
 ALAT       =     2.4870784119
 C/A-ratio  =     9.4488375949
  
  Lattice vectors:
  
 A1 = (   2.4870784119,  -0.0000000000,   0.0000000000)
 A2 = (  -1.2435392060,   2.1538730846,   0.0000000000)
 A3 = (   0.0000000000,   0.0000000000,  23.5000000000)


Analysis of symmetry for initial positions (statically):
=====================================================================
 Subroutine PRICEL returns:
 Original cell was already a primitive cell.
 

 Routine SETGRP: Setting up the symmetry group for a 
 hexagonal supercell.


 Subroutine GETGRP returns: Found  6 space group operations
 (whereof  6 operations were pure point group operations)
 out of a pool of 24 trial point group operations.


The static configuration has the point symmetry C_3v.


Analysis of symmetry for dynamics (positions and initial velocities):
=====================================================================
 Subroutine PRICEL returns:
 Original cell was already a primitive cell.
 

 Routine SETGRP: Setting up the symmetry group for a 
 hexagonal supercell.


 Subroutine GETGRP returns: Found  6 space group operations
 (whereof  6 operations were pure point group operations)
 out of a pool of 24 trial point group operations.


The dynamic configuration has the point symmetry C_3v.


 Subroutine INISYM returns: Found  6 space group operations
 (whereof  6 operations are pure point group operations),
 and found     1 'primitive' translations


----------------------------------------------------------------------------------------

                                     Primitive cell                                     

  volume of cell :     125.8860

  direct lattice vectors                    reciprocal lattice vectors
     2.487078412 -0.000000000  0.000000000     0.402078196  0.232139955  0.000000000
    -1.243539206  2.153873085  0.000000000     0.000000000  0.464279909  0.000000000
     0.000000000  0.000000000 23.500000000     0.000000000  0.000000000  0.042553191

  length of vectors
     2.487078412  2.487078411 23.500000000     0.464279909  0.464279909  0.042553191

  position of ions in fractional coordinates (direct lattice)
     0.666666667  0.333333333  0.508519885
     0.333333333  0.666666667  0.508494060
     0.666666667  0.333333333  0.355201384
     0.333333333  0.666666667  0.355184671

  ion indices of the primitive-cell ions
   primitive index   ion index
                 1           1
                 2           2
                 3           3
                 4           4

----------------------------------------------------------------------------------------

 
 
 KPOINTS: Automatic generation                    

Automatic generation of k-mesh.
 Grid dimensions read from file:
 generate k-points for:   98   98    1

 Generating k-lattice:

  Cartesian coordinates                     Fractional coordinates (reciprocal lattice)
     0.004102839  0.002368775  0.000000000     0.010204082 -0.000000000  0.000000000
     0.000000000  0.004737550  0.000000000    -0.000000000  0.010204082  0.000000000
     0.000000000  0.000000000  0.042553191     0.000000000  0.000000000  1.000000000

  Length of vectors
     0.004737550  0.004737550  0.042553191

  Shift w.r.t. Gamma in fractional coordinates (k-lattice)
     0.000000000  0.000000000  0.000000000

 
 Subroutine IBZKPT returns following result:
 ===========================================
 
 Found    850 irreducible k-points:
 
 Following reciprocal coordinates:
            Coordinates               Weight
  0.000000  0.000000  0.000000      1.000000
  0.010204 -0.000000  0.000000      6.000000
  0.020408 -0.000000  0.000000      6.000000
  0.030612 -0.000000  0.000000      6.000000
  0.040816 -0.000000  0.000000      6.000000
  0.051020 -0.000000  0.000000      6.000000
  0.061224 -0.000000  0.000000      6.000000
  0.071429 -0.000000  0.000000      6.000000
  0.081633 -0.000000  0.000000      6.000000
  0.091837 -0.000000  0.000000      6.000000
  0.102041 -0.000000  0.000000      6.000000
  0.112245 -0.000000  0.000000      6.000000
  0.122449 -0.000000  0.000000      6.000000
  0.132653 -0.000000  0.000000      6.000000
  0.142857  0.000000  0.000000      6.000000
  0.153061 -0.000000  0.000000      6.000000
  0.163265 -0.000000  0.000000      6.000000
  0.173469 -0.000000  0.000000      6.000000
  0.183673 -0.000000  0.000000      6.000000
  0.193878 -0.000000  0.000000      6.000000
  0.204082 -0.000000  0.000000      6.000000
  0.214286 -0.000000  0.000000      6.000000
  0.224490 -0.000000  0.000000      6.000000
  0.234694 -0.000000  0.000000      6.000000
  0.244898 -0.000000  0.000000      6.000000
  0.255102  0.000000  0.000000      6.000000
  0.265306 -0.000000  0.000000      6.000000
  0.275510 -0.000000  0.000000      6.000000
  0.285714 -0.000000  0.000000      6.000000
  0.295918 -0.000000  0.000000      6.000000
  0.306122 -0.000000  0.000000      6.000000
  0.316327 -0.000000  0.000000      6.000000
  0.326531 -0.000000  0.000000      6.000000
  0.336735 -0.000000  0.000000      6.000000
  0.346939 -0.000000  0.000000      6.000000
  0.357143 -0.000000  0.000000      6.000000
  0.367347 -0.000000  0.000000      6.000000
  0.377551 -0.000000  0.000000      6.000000
  0.387755 -0.000000  0.000000      6.000000
  0.397959 -0.000000  0.000000      6.000000
  0.408163 -0.000000  0.000000      6.000000
  0.418367 -0.000000  0.000000      6.000000
  0.428571 -0.000000  0.000000      6.000000
  0.438776 -0.000000  0.000000      6.000000
  0.448980 -0.000000  0.000000      6.000000
  0.459184 -0.000000  0.000000      6.000000
  0.469388 -0.000000  0.000000      6.000000
  0.479592 -0.000000  0.000000      6.000000
  0.489796 -0.000000  0.000000      6.000000
  0.500000 -0.000000  0.000000      3.000000
  0.010204  0.010204  0.000000      6.000000
  0.020408  0.010204  0.000000     12.000000
  0.030612  0.010204  0.000000     12.000000
  0.040816  0.010204  0.000000     12.000000
  0.051020  0.010204  0.000000     12.000000
  0.061224  0.010204  0.000000     12.000000
  0.071429  0.010204  0.000000     12.000000
  0.081633  0.010204  0.000000     12.000000
  0.091837  0.010204  0.000000     12.000000
  0.102041  0.010204  0.000000     12.000000
  0.112245  0.010204  0.000000     12.000000
  0.122449  0.010204  0.000000     12.000000
  0.132653  0.010204  0.000000     12.000000
  0.142857  0.010204  0.000000     12.000000
  0.153061  0.010204  0.000000     12.000000
  0.163265  0.010204  0.000000     12.000000
  0.173469  0.010204  0.000000     12.000000
  0.183673  0.010204  0.000000     12.000000
  0.193878  0.010204  0.000000     12.000000
  0.204082  0.010204  0.000000     12.000000
  0.214286  0.010204  0.000000     12.000000
  0.224490  0.010204  0.000000     12.000000
  0.234694  0.010204  0.000000     12.000000
  0.244898  0.010204  0.000000     12.000000
  0.255102  0.010204  0.000000     12.000000
  0.265306  0.010204  0.000000     12.000000
  0.275510  0.010204  0.000000     12.000000
  0.285714  0.010204  0.000000     12.000000
  0.295918  0.010204  0.000000     12.000000
  0.306122  0.010204  0.000000     12.000000
  0.316327  0.010204  0.000000     12.000000
  0.326531  0.010204  0.000000     12.000000
  0.336735  0.010204  0.000000     12.000000
  0.346939  0.010204  0.000000     12.000000
  0.357143  0.010204  0.000000     12.000000
  0.367347  0.010204  0.000000     12.000000
  0.377551  0.010204  0.000000     12.000000
  0.387755  0.010204  0.000000     12.000000
  0.397959  0.010204  0.000000     12.000000
  0.408163  0.010204  0.000000     12.000000
  0.418367  0.010204  0.000000     12.000000
  0.428571  0.010204  0.000000     12.000000
  0.438776  0.010204  0.000000     12.000000
  0.448980  0.010204  0.000000     12.000000
  0.459184  0.010204  0.000000     12.000000
  0.469388  0.010204  0.000000     12.000000
  0.479592  0.010204  0.000000     12.000000
  0.489796  0.010204  0.000000     12.000000
  0.020408  0.020408  0.000000      6.000000
  0.030612  0.020408  0.000000     12.000000
  0.040816  0.020408  0.000000     12.000000
  0.051020  0.020408  0.000000     12.000000
  0.061224  0.020408  0.000000     12.000000
  0.071429  0.020408  0.000000     12.000000
  0.081633  0.020408  0.000000     12.000000
  0.091837  0.020408  0.000000     12.000000
  0.102041  0.020408  0.000000     12.000000
  0.112245  0.020408  0.000000     12.000000
  0.122449  0.020408  0.000000     12.000000
  0.132653  0.020408  0.000000     12.000000
  0.142857  0.020408  0.000000     12.000000
  0.153061  0.020408  0.000000     12.000000
  0.163265  0.020408  0.000000     12.000000
  0.173469  0.020408  0.000000     12.000000
  0.183673  0.020408  0.000000     12.000000
  0.193878  0.020408  0.000000     12.000000
  0.204082  0.020408  0.000000     12.000000
  0.214286  0.020408  0.000000     12.000000
  0.224490  0.020408  0.000000     12.000000
  0.234694  0.020408  0.000000     12.000000
  0.244898  0.020408  0.000000     12.000000
  0.255102  0.020408  0.000000     12.000000
  0.265306  0.020408  0.000000     12.000000
  0.275510  0.020408  0.000000     12.000000
  0.285714  0.020408  0.000000     12.000000
  0.295918  0.020408  0.000000     12.000000
  0.306122  0.020408  0.000000     12.000000
  0.316327  0.020408  0.000000     12.000000
  0.326531  0.020408  0.000000     12.000000
  0.336735  0.020408  0.000000     12.000000
  0.346939  0.020408  0.000000     12.000000
  0.357143  0.020408  0.000000     12.000000
  0.367347  0.020408  0.000000     12.000000
  0.377551  0.020408  0.000000     12.000000
  0.387755  0.020408  0.000000     12.000000
  0.397959  0.020408  0.000000     12.000000
  0.408163  0.020408  0.000000     12.000000
  0.418367  0.020408  0.000000     12.000000
  0.428571  0.020408  0.000000     12.000000
  0.438776  0.020408  0.000000     12.000000
  0.448980  0.020408  0.000000     12.000000
  0.459184  0.020408  0.000000     12.000000
  0.469388  0.020408  0.000000     12.000000
  0.479592  0.020408  0.000000     12.000000
  0.489796  0.020408  0.000000      6.000000
  0.030612  0.030612  0.000000      6.000000
  0.040816  0.030612  0.000000     12.000000
  0.051020  0.030612  0.000000     12.000000
  0.061224  0.030612  0.000000     12.000000
  0.071429  0.030612  0.000000     12.000000
  0.081633  0.030612  0.000000     12.000000
  0.091837  0.030612  0.000000     12.000000
  0.102041  0.030612  0.000000     12.000000
  0.112245  0.030612  0.000000     12.000000
  0.122449  0.030612  0.000000     12.000000
  0.132653  0.030612  0.000000     12.000000
  0.142857  0.030612  0.000000     12.000000
  0.153061  0.030612  0.000000     12.000000
  0.163265  0.030612  0.000000     12.000000
  0.173469  0.030612  0.000000     12.000000
  0.183673  0.030612  0.000000     12.000000
  0.193878  0.030612  0.000000     12.000000
  0.204082  0.030612  0.000000     12.000000
  0.214286  0.030612  0.000000     12.000000
  0.224490  0.030612  0.000000     12.000000
  0.234694  0.030612  0.000000     12.000000
  0.244898  0.030612  0.000000     12.000000
  0.255102  0.030612  0.000000     12.000000
  0.265306  0.030612  0.000000     12.000000
  0.275510  0.030612  0.000000     12.000000
  0.285714  0.030612  0.000000     12.000000
  0.295918  0.030612  0.000000     12.000000
  0.306122  0.030612  0.000000     12.000000
  0.316327  0.030612  0.000000     12.000000
  0.326531  0.030612  0.000000     12.000000
  0.336735  0.030612  0.000000     12.000000
  0.346939  0.030612  0.000000     12.000000
  0.357143  0.030612  0.000000     12.000000
  0.367347  0.030612  0.000000     12.000000
  0.377551  0.030612  0.000000     12.000000
  0.387755  0.030612  0.000000     12.000000
  0.397959  0.030612  0.000000     12.000000
  0.408163  0.030612  0.000000     12.000000
  0.418367  0.030612  0.000000     12.000000
  0.428571  0.030612  0.000000     12.000000
  0.438776  0.030612  0.000000     12.000000
  0.448980  0.030612  0.000000     12.000000
  0.459184  0.030612  0.000000     12.000000
  0.469388  0.030612  0.000000     12.000000
  0.479592  0.030612  0.000000     12.000000
  0.040816  0.040816  0.000000      6.000000
  0.051020  0.040816  0.000000     12.000000
  0.061224  0.040816  0.000000     12.000000
  0.071429  0.040816  0.000000     12.000000
  0.081633  0.040816  0.000000     12.000000
  0.091837  0.040816  0.000000     12.000000
  0.102041  0.040816  0.000000     12.000000
  0.112245  0.040816  0.000000     12.000000
  0.122449  0.040816  0.000000     12.000000
  0.132653  0.040816  0.000000     12.000000
  0.142857  0.040816  0.000000     12.000000
  0.153061  0.040816  0.000000     12.000000
  0.163265  0.040816  0.000000     12.000000
  0.173469  0.040816  0.000000     12.000000
  0.183673  0.040816  0.000000     12.000000
  0.193878  0.040816  0.000000     12.000000
  0.204082  0.040816  0.000000     12.000000
  0.214286  0.040816  0.000000     12.000000
  0.224490  0.040816  0.000000     12.000000
  0.234694  0.040816  0.000000     12.000000
  0.244898  0.040816  0.000000     12.000000
  0.255102  0.040816  0.000000     12.000000
  0.265306  0.040816  0.000000     12.000000
  0.275510  0.040816  0.000000     12.000000
  0.285714  0.040816  0.000000     12.000000
  0.295918  0.040816  0.000000     12.000000
  0.306122  0.040816  0.000000     12.000000
  0.316327  0.040816  0.000000     12.000000
  0.326531  0.040816  0.000000     12.000000
  0.336735  0.040816  0.000000     12.000000
  0.346939  0.040816  0.000000     12.000000
  0.357143  0.040816  0.000000     12.000000
  0.367347  0.040816  0.000000     12.000000
  0.377551  0.040816  0.000000     12.000000
  0.387755  0.040816  0.000000     12.000000
  0.397959  0.040816  0.000000     12.000000
  0.408163  0.040816  0.000000     12.000000
  0.418367  0.040816  0.000000     12.000000
  0.428571  0.040816  0.000000     12.000000
  0.438776  0.040816  0.000000     12.000000
  0.448980  0.040816  0.000000     12.000000
  0.459184  0.040816  0.000000     12.000000
  0.469388  0.040816  0.000000     12.000000
  0.479592  0.040816  0.000000      6.000000
  0.051020  0.051020  0.000000      6.000000
  0.061224  0.051020  0.000000     12.000000
  0.071429  0.051020  0.000000     12.000000
  0.081633  0.051020  0.000000     12.000000
  0.091837  0.051020  0.000000     12.000000
  0.102041  0.051020  0.000000     12.000000
  0.112245  0.051020  0.000000     12.000000
  0.122449  0.051020  0.000000     12.000000
  0.132653  0.051020  0.000000     12.000000
  0.142857  0.051020  0.000000     12.000000
  0.153061  0.051020  0.000000     12.000000
  0.163265  0.051020  0.000000     12.000000
  0.173469  0.051020  0.000000     12.000000
  0.183673  0.051020  0.000000     12.000000
  0.193878  0.051020  0.000000     12.000000
  0.204082  0.051020  0.000000     12.000000
  0.214286  0.051020  0.000000     12.000000
  0.224490  0.051020  0.000000     12.000000
  0.234694  0.051020  0.000000     12.000000
  0.244898  0.051020  0.000000     12.000000
  0.255102  0.051020  0.000000     12.000000
  0.265306  0.051020  0.000000     12.000000
  0.275510  0.051020  0.000000     12.000000
  0.285714  0.051020  0.000000     12.000000
  0.295918  0.051020  0.000000     12.000000
  0.306122  0.051020  0.000000     12.000000
  0.316327  0.051020  0.000000     12.000000
  0.326531  0.051020  0.000000     12.000000
  0.336735  0.051020  0.000000     12.000000
  0.346939  0.051020  0.000000     12.000000
  0.357143  0.051020  0.000000     12.000000
  0.367347  0.051020  0.000000     12.000000
  0.377551  0.051020  0.000000     12.000000
  0.387755  0.051020  0.000000     12.000000
  0.397959  0.051020  0.000000     12.000000
  0.408163  0.051020  0.000000     12.000000
  0.418367  0.051020  0.000000     12.000000
  0.428571  0.051020  0.000000     12.000000
  0.438776  0.051020  0.000000     12.000000
  0.448980  0.051020  0.000000     12.000000
  0.459184  0.051020  0.000000     12.000000
  0.469388  0.051020  0.000000     12.000000
  0.061224  0.061224  0.000000      6.000000
  0.071429  0.061224  0.000000     12.000000
  0.081633  0.061224  0.000000     12.000000
  0.091837  0.061224  0.000000     12.000000
  0.102041  0.061224  0.000000     12.000000
  0.112245  0.061224  0.000000     12.000000
  0.122449  0.061224  0.000000     12.000000
  0.132653  0.061224  0.000000     12.000000
  0.142857  0.061224  0.000000     12.000000
  0.153061  0.061224  0.000000     12.000000
  0.163265  0.061224  0.000000     12.000000
  0.173469  0.061224  0.000000     12.000000
  0.183673  0.061224  0.000000     12.000000
  0.193878  0.061224  0.000000     12.000000
  0.204082  0.061224  0.000000     12.000000
  0.214286  0.061224  0.000000     12.000000
  0.224490  0.061224  0.000000     12.000000
  0.234694  0.061224  0.000000     12.000000
  0.244898  0.061224  0.000000     12.000000
  0.255102  0.061224  0.000000     12.000000
  0.265306  0.061224  0.000000     12.000000
  0.275510  0.061224  0.000000     12.000000
  0.285714  0.061224  0.000000     12.000000
  0.295918  0.061224  0.000000     12.000000
  0.306122  0.061224  0.000000     12.000000
  0.316327  0.061224  0.000000     12.000000
  0.326531  0.061224  0.000000     12.000000
  0.336735  0.061224  0.000000     12.000000
  0.346939  0.061224  0.000000     12.000000
  0.357143  0.061224  0.000000     12.000000
  0.367347  0.061224  0.000000     12.000000
  0.377551  0.061224  0.000000     12.000000
  0.387755  0.061224  0.000000     12.000000
  0.397959  0.061224  0.000000     12.000000
  0.408163  0.061224  0.000000     12.000000
  0.418367  0.061224  0.000000     12.000000
  0.428571  0.061224  0.000000     12.000000
  0.438776  0.061224  0.000000     12.000000
  0.448980  0.061224  0.000000     12.000000
  0.459184  0.061224  0.000000     12.000000
  0.469388  0.061224  0.000000      6.000000
  0.071429  0.071429  0.000000      6.000000
  0.081633  0.071429  0.000000     12.000000
  0.091837  0.071429  0.000000     12.000000
  0.102041  0.071429  0.000000     12.000000
  0.112245  0.071429  0.000000     12.000000
  0.122449  0.071429  0.000000     12.000000
  0.132653  0.071429  0.000000     12.000000
  0.142857  0.071429  0.000000     12.000000
  0.153061  0.071429  0.000000     12.000000
  0.163265  0.071429  0.000000     12.000000
  0.173469  0.071429  0.000000     12.000000
  0.183673  0.071429  0.000000     12.000000
  0.193878  0.071429  0.000000     12.000000
  0.204082  0.071429  0.000000     12.000000
  0.214286  0.071429  0.000000     12.000000
  0.224490  0.071429  0.000000     12.000000
  0.234694  0.071429  0.000000     12.000000
  0.244898  0.071429  0.000000     12.000000
  0.255102  0.071429  0.000000     12.000000
  0.265306  0.071429  0.000000     12.000000
  0.275510  0.071429  0.000000     12.000000
  0.285714  0.071429  0.000000     12.000000
  0.295918  0.071429  0.000000     12.000000
  0.306122  0.071429  0.000000     12.000000
  0.316327  0.071429  0.000000     12.000000
  0.326531  0.071429  0.000000     12.000000
  0.336735  0.071429  0.000000     12.000000
  0.346939  0.071429  0.000000     12.000000
  0.357143  0.071429  0.000000     12.000000
  0.367347  0.071429  0.000000     12.000000
  0.377551  0.071429  0.000000     12.000000
  0.387755  0.071429  0.000000     12.000000
  0.397959  0.071429  0.000000     12.000000
  0.408163  0.071429  0.000000     12.000000
  0.418367  0.071429  0.000000     12.000000
  0.428571  0.071429  0.000000     12.000000
  0.438776  0.071429  0.000000     12.000000
  0.448980  0.071429  0.000000     12.000000
  0.459184  0.071429  0.000000     12.000000
  0.081633  0.081633  0.000000      6.000000
  0.091837  0.081633  0.000000     12.000000
  0.102041  0.081633  0.000000     12.000000
  0.112245  0.081633  0.000000     12.000000
  0.122449  0.081633  0.000000     12.000000
  0.132653  0.081633  0.000000     12.000000
  0.142857  0.081633  0.000000     12.000000
  0.153061  0.081633  0.000000     12.000000
  0.163265  0.081633  0.000000     12.000000
  0.173469  0.081633  0.000000     12.000000
  0.183673  0.081633  0.000000     12.000000
  0.193878  0.081633  0.000000     12.000000
  0.204082  0.081633  0.000000     12.000000
  0.214286  0.081633  0.000000     12.000000
  0.224490  0.081633  0.000000     12.000000
  0.234694  0.081633  0.000000     12.000000
  0.244898  0.081633  0.000000     12.000000
  0.255102  0.081633  0.000000     12.000000
  0.265306  0.081633  0.000000     12.000000
  0.275510  0.081633  0.000000     12.000000
  0.285714  0.081633  0.000000     12.000000
  0.295918  0.081633  0.000000     12.000000
  0.306122  0.081633  0.000000     12.000000
  0.316327  0.081633  0.000000     12.000000
  0.326531  0.081633  0.000000     12.000000
  0.336735  0.081633  0.000000     12.000000
  0.346939  0.081633  0.000000     12.000000
  0.357143  0.081633  0.000000     12.000000
  0.367347  0.081633  0.000000     12.000000
  0.377551  0.081633  0.000000     12.000000
  0.387755  0.081633  0.000000     12.000000
  0.397959  0.081633  0.000000     12.000000
  0.408163  0.081633  0.000000     12.000000
  0.418367  0.081633  0.000000     12.000000
  0.428571  0.081633  0.000000     12.000000
  0.438776  0.081633  0.000000     12.000000
  0.448980  0.081633  0.000000     12.000000
  0.459184  0.081633  0.000000      6.000000
  0.091837  0.091837  0.000000      6.000000
  0.102041  0.091837  0.000000     12.000000
  0.112245  0.091837  0.000000     12.000000
  0.122449  0.091837  0.000000     12.000000
  0.132653  0.091837  0.000000     12.000000
  0.142857  0.091837  0.000000     12.000000
  0.153061  0.091837  0.000000     12.000000
  0.163265  0.091837  0.000000     12.000000
  0.173469  0.091837  0.000000     12.000000
  0.183673  0.091837  0.000000     12.000000
  0.193878  0.091837  0.000000     12.000000
  0.204082  0.091837  0.000000     12.000000
  0.214286  0.091837  0.000000     12.000000
  0.224490  0.091837  0.000000     12.000000
  0.234694  0.091837  0.000000     12.000000
  0.244898  0.091837  0.000000     12.000000
  0.255102  0.091837  0.000000     12.000000
  0.265306  0.091837  0.000000     12.000000
  0.275510  0.091837  0.000000     12.000000
  0.285714  0.091837  0.000000     12.000000
  0.295918  0.091837  0.000000     12.000000
  0.306122  0.091837  0.000000     12.000000
  0.316327  0.091837  0.000000     12.000000
  0.326531  0.091837  0.000000     12.000000
  0.336735  0.091837  0.000000     12.000000
  0.346939  0.091837  0.000000     12.000000
  0.357143  0.091837  0.000000     12.000000
  0.367347  0.091837  0.000000     12.000000
  0.377551  0.091837  0.000000     12.000000
  0.387755  0.091837  0.000000     12.000000
  0.397959  0.091837  0.000000     12.000000
  0.408163  0.091837  0.000000     12.000000
  0.418367  0.091837  0.000000     12.000000
  0.428571  0.091837  0.000000     12.000000
  0.438776  0.091837  0.000000     12.000000
  0.448980  0.091837  0.000000     12.000000
  0.102041  0.102041  0.000000      6.000000
  0.112245  0.102041  0.000000     12.000000
  0.122449  0.102041  0.000000     12.000000
  0.132653  0.102041  0.000000     12.000000
  0.142857  0.102041  0.000000     12.000000
  0.153061  0.102041  0.000000     12.000000
  0.163265  0.102041  0.000000     12.000000
  0.173469  0.102041  0.000000     12.000000
  0.183673  0.102041  0.000000     12.000000
  0.193878  0.102041  0.000000     12.000000
  0.204082  0.102041  0.000000     12.000000
  0.214286  0.102041  0.000000     12.000000
  0.224490  0.102041  0.000000     12.000000
  0.234694  0.102041  0.000000     12.000000
  0.244898  0.102041  0.000000     12.000000
  0.255102  0.102041  0.000000     12.000000
  0.265306  0.102041  0.000000     12.000000
  0.275510  0.102041  0.000000     12.000000
  0.285714  0.102041  0.000000     12.000000
  0.295918  0.102041  0.000000     12.000000
  0.306122  0.102041  0.000000     12.000000
  0.316327  0.102041  0.000000     12.000000
  0.326531  0.102041  0.000000     12.000000
  0.336735  0.102041  0.000000     12.000000
  0.346939  0.102041  0.000000     12.000000
  0.357143  0.102041  0.000000     12.000000
  0.367347  0.102041  0.000000     12.000000
  0.377551  0.102041  0.000000     12.000000
  0.387755  0.102041  0.000000     12.000000
  0.397959  0.102041  0.000000     12.000000
  0.408163  0.102041  0.000000     12.000000
  0.418367  0.102041  0.000000     12.000000
  0.428571  0.102041  0.000000     12.000000
  0.438776  0.102041  0.000000     12.000000
  0.448980  0.102041  0.000000      6.000000
  0.112245  0.112245  0.000000      6.000000
  0.122449  0.112245  0.000000     12.000000
  0.132653  0.112245  0.000000     12.000000
  0.142857  0.112245  0.000000     12.000000
  0.153061  0.112245  0.000000     12.000000
  0.163265  0.112245  0.000000     12.000000
  0.173469  0.112245  0.000000     12.000000
  0.183673  0.112245  0.000000     12.000000
  0.193878  0.112245  0.000000     12.000000
  0.204082  0.112245  0.000000     12.000000
  0.214286  0.112245  0.000000     12.000000
  0.224490  0.112245  0.000000     12.000000
  0.234694  0.112245  0.000000     12.000000
  0.244898  0.112245  0.000000     12.000000
  0.255102  0.112245  0.000000     12.000000
  0.265306  0.112245  0.000000     12.000000
  0.275510  0.112245  0.000000     12.000000
  0.285714  0.112245  0.000000     12.000000
  0.295918  0.112245  0.000000     12.000000
  0.306122  0.112245  0.000000     12.000000
  0.316327  0.112245  0.000000     12.000000
  0.326531  0.112245  0.000000     12.000000
  0.336735  0.112245  0.000000     12.000000
  0.346939  0.112245  0.000000     12.000000
  0.357143  0.112245  0.000000     12.000000
  0.367347  0.112245  0.000000     12.000000
  0.377551  0.112245  0.000000     12.000000
  0.387755  0.112245  0.000000     12.000000
  0.397959  0.112245  0.000000     12.000000
  0.408163  0.112245  0.000000     12.000000
  0.418367  0.112245  0.000000     12.000000
  0.428571  0.112245  0.000000     12.000000
  0.438776  0.112245  0.000000     12.000000
  0.122449  0.122449  0.000000      6.000000
  0.132653  0.122449  0.000000     12.000000
  0.142857  0.122449  0.000000     12.000000
  0.153061  0.122449  0.000000     12.000000
  0.163265  0.122449  0.000000     12.000000
  0.173469  0.122449  0.000000     12.000000
  0.183673  0.122449  0.000000     12.000000
  0.193878  0.122449  0.000000     12.000000
  0.204082  0.122449  0.000000     12.000000
  0.214286  0.122449  0.000000     12.000000
  0.224490  0.122449  0.000000     12.000000
  0.234694  0.122449  0.000000     12.000000
  0.244898  0.122449  0.000000     12.000000
  0.255102  0.122449  0.000000     12.000000
  0.265306  0.122449  0.000000     12.000000
  0.275510  0.122449  0.000000     12.000000
  0.285714  0.122449  0.000000     12.000000
  0.295918  0.122449  0.000000     12.000000
  0.306122  0.122449  0.000000     12.000000
  0.316327  0.122449  0.000000     12.000000
  0.326531  0.122449  0.000000     12.000000
  0.336735  0.122449  0.000000     12.000000
  0.346939  0.122449  0.000000     12.000000
  0.357143  0.122449  0.000000     12.000000
  0.367347  0.122449  0.000000     12.000000
  0.377551  0.122449  0.000000     12.000000
  0.387755  0.122449  0.000000     12.000000
  0.397959  0.122449  0.000000     12.000000
  0.408163  0.122449  0.000000     12.000000
  0.418367  0.122449  0.000000     12.000000
  0.428571  0.122449  0.000000     12.000000
  0.438776  0.122449  0.000000      6.000000
  0.132653  0.132653  0.000000      6.000000
  0.142857  0.132653  0.000000     12.000000
  0.153061  0.132653  0.000000     12.000000
  0.163265  0.132653  0.000000     12.000000
  0.173469  0.132653  0.000000     12.000000
  0.183673  0.132653  0.000000     12.000000
  0.193878  0.132653  0.000000     12.000000
  0.204082  0.132653  0.000000     12.000000
  0.214286  0.132653  0.000000     12.000000
  0.224490  0.132653  0.000000     12.000000
  0.234694  0.132653  0.000000     12.000000
  0.244898  0.132653  0.000000     12.000000
  0.255102  0.132653  0.000000     12.000000
  0.265306  0.132653  0.000000     12.000000
  0.275510  0.132653  0.000000     12.000000
  0.285714  0.132653  0.000000     12.000000
  0.295918  0.132653  0.000000     12.000000
  0.306122  0.132653  0.000000     12.000000
  0.316327  0.132653  0.000000     12.000000
  0.326531  0.132653  0.000000     12.000000
  0.336735  0.132653  0.000000     12.000000
  0.346939  0.132653  0.000000     12.000000
  0.357143  0.132653  0.000000     12.000000
  0.367347  0.132653  0.000000     12.000000
  0.377551  0.132653  0.000000     12.000000
  0.387755  0.132653  0.000000     12.000000
  0.397959  0.132653  0.000000     12.000000
  0.408163  0.132653  0.000000     12.000000
  0.418367  0.132653  0.000000     12.000000
  0.428571  0.132653  0.000000     12.000000
  0.142857  0.142857  0.000000      6.000000
  0.153061  0.142857  0.000000     12.000000
  0.163265  0.142857  0.000000     12.000000
  0.173469  0.142857  0.000000     12.000000
  0.183673  0.142857  0.000000     12.000000
  0.193878  0.142857  0.000000     12.000000
  0.204082  0.142857  0.000000     12.000000
  0.214286  0.142857  0.000000     12.000000
  0.224490  0.142857  0.000000     12.000000
  0.234694  0.142857  0.000000     12.000000
  0.244898  0.142857  0.000000     12.000000
  0.255102  0.142857  0.000000     12.000000
  0.265306  0.142857  0.000000     12.000000
  0.275510  0.142857  0.000000     12.000000
  0.285714  0.142857  0.000000     12.000000
  0.295918  0.142857  0.000000     12.000000
  0.306122  0.142857  0.000000     12.000000
  0.316327  0.142857  0.000000     12.000000
  0.326531  0.142857  0.000000     12.000000
  0.336735  0.142857  0.000000     12.000000
  0.346939  0.142857  0.000000     12.000000
  0.357143  0.142857  0.000000     12.000000
  0.367347  0.142857  0.000000     12.000000
  0.377551  0.142857  0.000000     12.000000
  0.387755  0.142857  0.000000     12.000000
  0.397959  0.142857  0.000000     12.000000
  0.408163  0.142857  0.000000     12.000000
  0.418367  0.142857  0.000000     12.000000
  0.428571  0.142857  0.000000      6.000000
  0.153061  0.153061  0.000000      6.000000
  0.163265  0.153061  0.000000     12.000000
  0.173469  0.153061  0.000000     12.000000
  0.183673  0.153061  0.000000     12.000000
  0.193878  0.153061  0.000000     12.000000
  0.204082  0.153061  0.000000     12.000000
  0.214286  0.153061  0.000000     12.000000
  0.224490  0.153061  0.000000     12.000000
  0.234694  0.153061  0.000000     12.000000
  0.244898  0.153061  0.000000     12.000000
  0.255102  0.153061  0.000000     12.000000
  0.265306  0.153061  0.000000     12.000000
  0.275510  0.153061  0.000000     12.000000
  0.285714  0.153061  0.000000     12.000000
  0.295918  0.153061  0.000000     12.000000
  0.306122  0.153061  0.000000     12.000000
  0.316327  0.153061  0.000000     12.000000
  0.326531  0.153061  0.000000     12.000000
  0.336735  0.153061  0.000000     12.000000
  0.346939  0.153061  0.000000     12.000000
  0.357143  0.153061  0.000000     12.000000
  0.367347  0.153061  0.000000     12.000000
  0.377551  0.153061  0.000000     12.000000
  0.387755  0.153061  0.000000     12.000000
  0.397959  0.153061  0.000000     12.000000
  0.408163  0.153061  0.000000     12.000000
  0.418367  0.153061  0.000000     12.000000
  0.163265  0.163265  0.000000      6.000000
  0.173469  0.163265  0.000000     12.000000
  0.183673  0.163265  0.000000     12.000000
  0.193878  0.163265  0.000000     12.000000
  0.204082  0.163265  0.000000     12.000000
  0.214286  0.163265  0.000000     12.000000
  0.224490  0.163265  0.000000     12.000000
  0.234694  0.163265  0.000000     12.000000
  0.244898  0.163265  0.000000     12.000000
  0.255102  0.163265  0.000000     12.000000
  0.265306  0.163265  0.000000     12.000000
  0.275510  0.163265  0.000000     12.000000
  0.285714  0.163265  0.000000     12.000000
  0.295918  0.163265  0.000000     12.000000
  0.306122  0.163265  0.000000     12.000000
  0.316327  0.163265  0.000000     12.000000
  0.326531  0.163265  0.000000     12.000000
  0.336735  0.163265  0.000000     12.000000
  0.346939  0.163265  0.000000     12.000000
  0.357143  0.163265  0.000000     12.000000
  0.367347  0.163265  0.000000     12.000000
  0.377551  0.163265  0.000000     12.000000
  0.387755  0.163265  0.000000     12.000000
  0.397959  0.163265  0.000000     12.000000
  0.408163  0.163265  0.000000     12.000000
  0.418367  0.163265  0.000000      6.000000
  0.173469  0.173469  0.000000      6.000000
  0.183673  0.173469  0.000000     12.000000
  0.193878  0.173469  0.000000     12.000000
  0.204082  0.173469  0.000000     12.000000
  0.214286  0.173469  0.000000     12.000000
  0.224490  0.173469  0.000000     12.000000
  0.234694  0.173469  0.000000     12.000000
  0.244898  0.173469  0.000000     12.000000
  0.255102  0.173469  0.000000     12.000000
  0.265306  0.173469  0.000000     12.000000
  0.275510  0.173469  0.000000     12.000000
  0.285714  0.173469  0.000000     12.000000
  0.295918  0.173469  0.000000     12.000000
  0.306122  0.173469  0.000000     12.000000
  0.316327  0.173469  0.000000     12.000000
  0.326531  0.173469  0.000000     12.000000
  0.336735  0.173469  0.000000     12.000000
  0.346939  0.173469  0.000000     12.000000
  0.357143  0.173469  0.000000     12.000000
  0.367347  0.173469  0.000000     12.000000
  0.377551  0.173469  0.000000     12.000000
  0.387755  0.173469  0.000000     12.000000
  0.397959  0.173469  0.000000     12.000000
  0.408163  0.173469  0.000000     12.000000
  0.183673  0.183673  0.000000      6.000000
  0.193878  0.183673  0.000000     12.000000
  0.204082  0.183673  0.000000     12.000000
  0.214286  0.183673  0.000000     12.000000
  0.224490  0.183673  0.000000     12.000000
  0.234694  0.183673  0.000000     12.000000
  0.244898  0.183673  0.000000     12.000000
  0.255102  0.183673  0.000000     12.000000
  0.265306  0.183673  0.000000     12.000000
  0.275510  0.183673  0.000000     12.000000
  0.285714  0.183673  0.000000     12.000000
  0.295918  0.183673  0.000000     12.000000
  0.306122  0.183673  0.000000     12.000000
  0.316327  0.183673  0.000000     12.000000
  0.326531  0.183673  0.000000     12.000000
  0.336735  0.183673  0.000000     12.000000
  0.346939  0.183673  0.000000     12.000000
  0.357143  0.183673  0.000000     12.000000
  0.367347  0.183673  0.000000     12.000000
  0.377551  0.183673  0.000000     12.000000
  0.387755  0.183673  0.000000     12.000000
  0.397959  0.183673  0.000000     12.000000
  0.408163  0.183673  0.000000      6.000000
  0.193878  0.193878  0.000000      6.000000
  0.204082  0.193878  0.000000     12.000000
  0.214286  0.193878  0.000000     12.000000
  0.224490  0.193878  0.000000     12.000000
  0.234694  0.193878  0.000000     12.000000
  0.244898  0.193878  0.000000     12.000000
  0.255102  0.193878  0.000000     12.000000
  0.265306  0.193878  0.000000     12.000000
  0.275510  0.193878  0.000000     12.000000
  0.285714  0.193878  0.000000     12.000000
  0.295918  0.193878  0.000000     12.000000
  0.306122  0.193878  0.000000     12.000000
  0.316327  0.193878  0.000000     12.000000
  0.326531  0.193878  0.000000     12.000000
  0.336735  0.193878  0.000000     12.000000
  0.346939  0.193878  0.000000     12.000000
  0.357143  0.193878  0.000000     12.000000
  0.367347  0.193878  0.000000     12.000000
  0.377551  0.193878  0.000000     12.000000
  0.387755  0.193878  0.000000     12.000000
  0.397959  0.193878  0.000000     12.000000
  0.204082  0.204082  0.000000      6.000000
  0.214286  0.204082  0.000000     12.000000
  0.224490  0.204082  0.000000     12.000000
  0.234694  0.204082  0.000000     12.000000
  0.244898  0.204082  0.000000     12.000000
  0.255102  0.204082  0.000000     12.000000
  0.265306  0.204082  0.000000     12.000000
  0.275510  0.204082  0.000000     12.000000
  0.285714  0.204082  0.000000     12.000000
  0.295918  0.204082  0.000000     12.000000
  0.306122  0.204082  0.000000     12.000000
  0.316327  0.204082  0.000000     12.000000
  0.326531  0.204082  0.000000     12.000000
  0.336735  0.204082  0.000000     12.000000
  0.346939  0.204082  0.000000     12.000000
  0.357143  0.204082  0.000000     12.000000
  0.367347  0.204082  0.000000     12.000000
  0.377551  0.204082  0.000000     12.000000
  0.387755  0.204082  0.000000     12.000000
  0.397959  0.204082  0.000000      6.000000
  0.214286  0.214286  0.000000      6.000000
  0.224490  0.214286  0.000000     12.000000
  0.234694  0.214286  0.000000     12.000000
  0.244898  0.214286  0.000000     12.000000
  0.255102  0.214286  0.000000     12.000000
  0.265306  0.214286  0.000000     12.000000
  0.275510  0.214286  0.000000     12.000000
  0.285714  0.214286  0.000000     12.000000
  0.295918  0.214286  0.000000     12.000000
  0.306122  0.214286  0.000000     12.000000
  0.316327  0.214286  0.000000     12.000000
  0.326531  0.214286  0.000000     12.000000
  0.336735  0.214286  0.000000     12.000000
  0.346939  0.214286  0.000000     12.000000
  0.357143  0.214286  0.000000     12.000000
  0.367347  0.214286  0.000000     12.000000
  0.377551  0.214286  0.000000     12.000000
  0.387755  0.214286  0.000000     12.000000
  0.224490  0.224490  0.000000      6.000000
  0.234694  0.224490  0.000000     12.000000
  0.244898  0.224490  0.000000     12.000000
  0.255102  0.224490  0.000000     12.000000
  0.265306  0.224490  0.000000     12.000000
  0.275510  0.224490  0.000000     12.000000
  0.285714  0.224490  0.000000     12.000000
  0.295918  0.224490  0.000000     12.000000
  0.306122  0.224490  0.000000     12.000000
  0.316327  0.224490  0.000000     12.000000
  0.326531  0.224490  0.000000     12.000000
  0.336735  0.224490  0.000000     12.000000
  0.346939  0.224490  0.000000     12.000000
  0.357143  0.224490  0.000000     12.000000
  0.367347  0.224490  0.000000     12.000000
  0.377551  0.224490  0.000000     12.000000
  0.387755  0.224490  0.000000      6.000000
  0.234694  0.234694  0.000000      6.000000
  0.244898  0.234694  0.000000     12.000000
  0.255102  0.234694  0.000000     12.000000
  0.265306  0.234694  0.000000     12.000000
  0.275510  0.234694  0.000000     12.000000
  0.285714  0.234694  0.000000     12.000000
  0.295918  0.234694  0.000000     12.000000
  0.306122  0.234694  0.000000     12.000000
  0.316327  0.234694  0.000000     12.000000
  0.326531  0.234694  0.000000     12.000000
  0.336735  0.234694  0.000000     12.000000
  0.346939  0.234694  0.000000     12.000000
  0.357143  0.234694  0.000000     12.000000
  0.367347  0.234694  0.000000     12.000000
  0.377551  0.234694  0.000000     12.000000
  0.244898  0.244898  0.000000      6.000000
  0.255102  0.244898  0.000000     12.000000
  0.265306  0.244898  0.000000     12.000000
  0.275510  0.244898  0.000000     12.000000
  0.285714  0.244898  0.000000     12.000000
  0.295918  0.244898  0.000000     12.000000
  0.306122  0.244898  0.000000     12.000000
  0.316327  0.244898  0.000000     12.000000
  0.326531  0.244898  0.000000     12.000000
  0.336735  0.244898  0.000000     12.000000
  0.346939  0.244898  0.000000     12.000000
  0.357143  0.244898  0.000000     12.000000
  0.367347  0.244898  0.000000     12.000000
  0.377551  0.244898  0.000000      6.000000
  0.255102  0.255102  0.000000      6.000000
  0.265306  0.255102  0.000000     12.000000
  0.275510  0.255102  0.000000     12.000000
  0.285714  0.255102  0.000000     12.000000
  0.295918  0.255102  0.000000     12.000000
  0.306122  0.255102  0.000000     12.000000
  0.316327  0.255102  0.000000     12.000000
  0.326531  0.255102  0.000000     12.000000
  0.336735  0.255102  0.000000     12.000000
  0.346939  0.255102  0.000000     12.000000
  0.357143  0.255102  0.000000     12.000000
  0.367347  0.255102  0.000000     12.000000
  0.265306  0.265306  0.000000      6.000000
  0.275510  0.265306  0.000000     12.000000
  0.285714  0.265306  0.000000     12.000000
  0.295918  0.265306  0.000000     12.000000
  0.306122  0.265306  0.000000     12.000000
  0.316327  0.265306  0.000000     12.000000
  0.326531  0.265306  0.000000     12.000000
  0.336735  0.265306  0.000000     12.000000
  0.346939  0.265306  0.000000     12.000000
  0.357143  0.265306  0.000000     12.000000
  0.367347  0.265306  0.000000      6.000000
  0.275510  0.275510  0.000000      6.000000
  0.285714  0.275510  0.000000     12.000000
  0.295918  0.275510  0.000000     12.000000
  0.306122  0.275510  0.000000     12.000000
  0.316327  0.275510  0.000000     12.000000
  0.326531  0.275510  0.000000     12.000000
  0.336735  0.275510  0.000000     12.000000
  0.346939  0.275510  0.000000     12.000000
  0.357143  0.275510  0.000000     12.000000
  0.285714  0.285714  0.000000      6.000000
  0.295918  0.285714  0.000000     12.000000
  0.306122  0.285714  0.000000     12.000000
  0.316327  0.285714  0.000000     12.000000
  0.326531  0.285714  0.000000     12.000000
  0.336735  0.285714  0.000000     12.000000
  0.346939  0.285714  0.000000     12.000000
  0.357143  0.285714  0.000000      6.000000
  0.295918  0.295918  0.000000      6.000000
  0.306122  0.295918  0.000000     12.000000
  0.316327  0.295918  0.000000     12.000000
  0.326531  0.295918  0.000000     12.000000
  0.336735  0.295918  0.000000     12.000000
  0.346939  0.295918  0.000000     12.000000
  0.306122  0.306122  0.000000      6.000000
  0.316327  0.306122  0.000000     12.000000
  0.326531  0.306122  0.000000     12.000000
  0.336735  0.306122  0.000000     12.000000
  0.346939  0.306122  0.000000      6.000000
  0.316327  0.316327  0.000000      6.000000
  0.326531  0.316327  0.000000     12.000000
  0.336735  0.316327  0.000000     12.000000
  0.326531  0.326531  0.000000      6.000000
  0.336735  0.326531  0.000000      6.000000
 
 Following cartesian coordinates:
            Coordinates               Weight
  0.000000  0.000000  0.000000      1.000000
  0.004103  0.002369  0.000000      6.000000
  0.008206  0.004738  0.000000      6.000000
  0.012309  0.007106  0.000000      6.000000
  0.016411  0.009475  0.000000      6.000000
  0.020514  0.011844  0.000000      6.000000
  0.024617  0.014213  0.000000      6.000000
  0.028720  0.016581  0.000000      6.000000
  0.032823  0.018950  0.000000      6.000000
  0.036926  0.021319  0.000000      6.000000
  0.041028  0.023688  0.000000      6.000000
  0.045131  0.026057  0.000000      6.000000
  0.049234  0.028425  0.000000      6.000000
  0.053337  0.030794  0.000000      6.000000
  0.057440  0.033163  0.000000      6.000000
  0.061543  0.035532  0.000000      6.000000
  0.065645  0.037900  0.000000      6.000000
  0.069748  0.040269  0.000000      6.000000
  0.073851  0.042638  0.000000      6.000000
  0.077954  0.045007  0.000000      6.000000
  0.082057  0.047376  0.000000      6.000000
  0.086160  0.049744  0.000000      6.000000
  0.090262  0.052113  0.000000      6.000000
  0.094365  0.054482  0.000000      6.000000
  0.098468  0.056851  0.000000      6.000000
  0.102571  0.059219  0.000000      6.000000
  0.106674  0.061588  0.000000      6.000000
  0.110777  0.063957  0.000000      6.000000
  0.114879  0.066326  0.000000      6.000000
  0.118982  0.068694  0.000000      6.000000
  0.123085  0.071063  0.000000      6.000000
  0.127188  0.073432  0.000000      6.000000
  0.131291  0.075801  0.000000      6.000000
  0.135394  0.078170  0.000000      6.000000
  0.139497  0.080538  0.000000      6.000000
  0.143599  0.082907  0.000000      6.000000
  0.147702  0.085276  0.000000      6.000000
  0.151805  0.087645  0.000000      6.000000
  0.155908  0.090013  0.000000      6.000000
  0.160011  0.092382  0.000000      6.000000
  0.164114  0.094751  0.000000      6.000000
  0.168216  0.097120  0.000000      6.000000
  0.172319  0.099489  0.000000      6.000000
  0.176422  0.101857  0.000000      6.000000
  0.180525  0.104226  0.000000      6.000000
  0.184628  0.106595  0.000000      6.000000
  0.188731  0.108964  0.000000      6.000000
  0.192833  0.111332  0.000000      6.000000
  0.196936  0.113701  0.000000      6.000000
  0.201039  0.116070  0.000000      3.000000
  0.004103  0.007106  0.000000      6.000000
  0.008206  0.009475  0.000000     12.000000
  0.012309  0.011844  0.000000     12.000000
  0.016411  0.014213  0.000000     12.000000
  0.020514  0.016581  0.000000     12.000000
  0.024617  0.018950  0.000000     12.000000
  0.028720  0.021319  0.000000     12.000000
  0.032823  0.023688  0.000000     12.000000
  0.036926  0.026057  0.000000     12.000000
  0.041028  0.028425  0.000000     12.000000
  0.045131  0.030794  0.000000     12.000000
  0.049234  0.033163  0.000000     12.000000
  0.053337  0.035532  0.000000     12.000000
  0.057440  0.037900  0.000000     12.000000
  0.061543  0.040269  0.000000     12.000000
  0.065645  0.042638  0.000000     12.000000
  0.069748  0.045007  0.000000     12.000000
  0.073851  0.047376  0.000000     12.000000
  0.077954  0.049744  0.000000     12.000000
  0.082057  0.052113  0.000000     12.000000
  0.086160  0.054482  0.000000     12.000000
  0.090262  0.056851  0.000000     12.000000
  0.094365  0.059219  0.000000     12.000000
  0.098468  0.061588  0.000000     12.000000
  0.102571  0.063957  0.000000     12.000000
  0.106674  0.066326  0.000000     12.000000
  0.110777  0.068694  0.000000     12.000000
  0.114879  0.071063  0.000000     12.000000
  0.118982  0.073432  0.000000     12.000000
  0.123085  0.075801  0.000000     12.000000
  0.127188  0.078170  0.000000     12.000000
  0.131291  0.080538  0.000000     12.000000
  0.135394  0.082907  0.000000     12.000000
  0.139497  0.085276  0.000000     12.000000
  0.143599  0.087645  0.000000     12.000000
  0.147702  0.090013  0.000000     12.000000
  0.151805  0.092382  0.000000     12.000000
  0.155908  0.094751  0.000000     12.000000
  0.160011  0.097120  0.000000     12.000000
  0.164114  0.099489  0.000000     12.000000
  0.168216  0.101857  0.000000     12.000000
  0.172319  0.104226  0.000000     12.000000
  0.176422  0.106595  0.000000     12.000000
  0.180525  0.108964  0.000000     12.000000
  0.184628  0.111332  0.000000     12.000000
  0.188731  0.113701  0.000000     12.000000
  0.192833  0.116070  0.000000     12.000000
  0.196936  0.118439  0.000000     12.000000
  0.008206  0.014213  0.000000      6.000000
  0.012309  0.016581  0.000000     12.000000
  0.016411  0.018950  0.000000     12.000000
  0.020514  0.021319  0.000000     12.000000
  0.024617  0.023688  0.000000     12.000000
  0.028720  0.026057  0.000000     12.000000
  0.032823  0.028425  0.000000     12.000000
  0.036926  0.030794  0.000000     12.000000
  0.041028  0.033163  0.000000     12.000000
  0.045131  0.035532  0.000000     12.000000
  0.049234  0.037900  0.000000     12.000000
  0.053337  0.040269  0.000000     12.000000
  0.057440  0.042638  0.000000     12.000000
  0.061543  0.045007  0.000000     12.000000
  0.065645  0.047376  0.000000     12.000000
  0.069748  0.049744  0.000000     12.000000
  0.073851  0.052113  0.000000     12.000000
  0.077954  0.054482  0.000000     12.000000
  0.082057  0.056851  0.000000     12.000000
  0.086160  0.059219  0.000000     12.000000
  0.090262  0.061588  0.000000     12.000000
  0.094365  0.063957  0.000000     12.000000
  0.098468  0.066326  0.000000     12.000000
  0.102571  0.068694  0.000000     12.000000
  0.106674  0.071063  0.000000     12.000000
  0.110777  0.073432  0.000000     12.000000
  0.114879  0.075801  0.000000     12.000000
  0.118982  0.078170  0.000000     12.000000
  0.123085  0.080538  0.000000     12.000000
  0.127188  0.082907  0.000000     12.000000
  0.131291  0.085276  0.000000     12.000000
  0.135394  0.087645  0.000000     12.000000
  0.139497  0.090013  0.000000     12.000000
  0.143599  0.092382  0.000000     12.000000
  0.147702  0.094751  0.000000     12.000000
  0.151805  0.097120  0.000000     12.000000
  0.155908  0.099489  0.000000     12.000000
  0.160011  0.101857  0.000000     12.000000
  0.164114  0.104226  0.000000     12.000000
  0.168216  0.106595  0.000000     12.000000
  0.172319  0.108964  0.000000     12.000000
  0.176422  0.111332  0.000000     12.000000
  0.180525  0.113701  0.000000     12.000000
  0.184628  0.116070  0.000000     12.000000
  0.188731  0.118439  0.000000     12.000000
  0.192833  0.120808  0.000000     12.000000
  0.196936  0.123176  0.000000      6.000000
  0.012309  0.021319  0.000000      6.000000
  0.016411  0.023688  0.000000     12.000000
  0.020514  0.026057  0.000000     12.000000
  0.024617  0.028425  0.000000     12.000000
  0.028720  0.030794  0.000000     12.000000
  0.032823  0.033163  0.000000     12.000000
  0.036926  0.035532  0.000000     12.000000
  0.041028  0.037900  0.000000     12.000000
  0.045131  0.040269  0.000000     12.000000
  0.049234  0.042638  0.000000     12.000000
  0.053337  0.045007  0.000000     12.000000
  0.057440  0.047376  0.000000     12.000000
  0.061543  0.049744  0.000000     12.000000
  0.065645  0.052113  0.000000     12.000000
  0.069748  0.054482  0.000000     12.000000
  0.073851  0.056851  0.000000     12.000000
  0.077954  0.059219  0.000000     12.000000
  0.082057  0.061588  0.000000     12.000000
  0.086160  0.063957  0.000000     12.000000
  0.090262  0.066326  0.000000     12.000000
  0.094365  0.068694  0.000000     12.000000
  0.098468  0.071063  0.000000     12.000000
  0.102571  0.073432  0.000000     12.000000
  0.106674  0.075801  0.000000     12.000000
  0.110777  0.078170  0.000000     12.000000
  0.114879  0.080538  0.000000     12.000000
  0.118982  0.082907  0.000000     12.000000
  0.123085  0.085276  0.000000     12.000000
  0.127188  0.087645  0.000000     12.000000
  0.131291  0.090013  0.000000     12.000000
  0.135394  0.092382  0.000000     12.000000
  0.139497  0.094751  0.000000     12.000000
  0.143599  0.097120  0.000000     12.000000
  0.147702  0.099489  0.000000     12.000000
  0.151805  0.101857  0.000000     12.000000
  0.155908  0.104226  0.000000     12.000000
  0.160011  0.106595  0.000000     12.000000
  0.164114  0.108964  0.000000     12.000000
  0.168216  0.111332  0.000000     12.000000
  0.172319  0.113701  0.000000     12.000000
  0.176422  0.116070  0.000000     12.000000
  0.180525  0.118439  0.000000     12.000000
  0.184628  0.120808  0.000000     12.000000
  0.188731  0.123176  0.000000     12.000000
  0.192833  0.125545  0.000000     12.000000
  0.016411  0.028425  0.000000      6.000000
  0.020514  0.030794  0.000000     12.000000
  0.024617  0.033163  0.000000     12.000000
  0.028720  0.035532  0.000000     12.000000
  0.032823  0.037900  0.000000     12.000000
  0.036926  0.040269  0.000000     12.000000
  0.041028  0.042638  0.000000     12.000000
  0.045131  0.045007  0.000000     12.000000
  0.049234  0.047376  0.000000     12.000000
  0.053337  0.049744  0.000000     12.000000
  0.057440  0.052113  0.000000     12.000000
  0.061543  0.054482  0.000000     12.000000
  0.065645  0.056851  0.000000     12.000000
  0.069748  0.059219  0.000000     12.000000
  0.073851  0.061588  0.000000     12.000000
  0.077954  0.063957  0.000000     12.000000
  0.082057  0.066326  0.000000     12.000000
  0.086160  0.068694  0.000000     12.000000
  0.090262  0.071063  0.000000     12.000000
  0.094365  0.073432  0.000000     12.000000
  0.098468  0.075801  0.000000     12.000000
  0.102571  0.078170  0.000000     12.000000
  0.106674  0.080538  0.000000     12.000000
  0.110777  0.082907  0.000000     12.000000
  0.114879  0.085276  0.000000     12.000000
  0.118982  0.087645  0.000000     12.000000
  0.123085  0.090013  0.000000     12.000000
  0.127188  0.092382  0.000000     12.000000
  0.131291  0.094751  0.000000     12.000000
  0.135394  0.097120  0.000000     12.000000
  0.139497  0.099489  0.000000     12.000000
  0.143599  0.101857  0.000000     12.000000
  0.147702  0.104226  0.000000     12.000000
  0.151805  0.106595  0.000000     12.000000
  0.155908  0.108964  0.000000     12.000000
  0.160011  0.111332  0.000000     12.000000
  0.164114  0.113701  0.000000     12.000000
  0.168216  0.116070  0.000000     12.000000
  0.172319  0.118439  0.000000     12.000000
  0.176422  0.120808  0.000000     12.000000
  0.180525  0.123176  0.000000     12.000000
  0.184628  0.125545  0.000000     12.000000
  0.188731  0.127914  0.000000     12.000000
  0.192833  0.130283  0.000000      6.000000
  0.020514  0.035532  0.000000      6.000000
  0.024617  0.037900  0.000000     12.000000
  0.028720  0.040269  0.000000     12.000000
  0.032823  0.042638  0.000000     12.000000
  0.036926  0.045007  0.000000     12.000000
  0.041028  0.047376  0.000000     12.000000
  0.045131  0.049744  0.000000     12.000000
  0.049234  0.052113  0.000000     12.000000
  0.053337  0.054482  0.000000     12.000000
  0.057440  0.056851  0.000000     12.000000
  0.061543  0.059219  0.000000     12.000000
  0.065645  0.061588  0.000000     12.000000
  0.069748  0.063957  0.000000     12.000000
  0.073851  0.066326  0.000000     12.000000
  0.077954  0.068694  0.000000     12.000000
  0.082057  0.071063  0.000000     12.000000
  0.086160  0.073432  0.000000     12.000000
  0.090262  0.075801  0.000000     12.000000
  0.094365  0.078170  0.000000     12.000000
  0.098468  0.080538  0.000000     12.000000
  0.102571  0.082907  0.000000     12.000000
  0.106674  0.085276  0.000000     12.000000
  0.110777  0.087645  0.000000     12.000000
  0.114879  0.090013  0.000000     12.000000
  0.118982  0.092382  0.000000     12.000000
  0.123085  0.094751  0.000000     12.000000
  0.127188  0.097120  0.000000     12.000000
  0.131291  0.099489  0.000000     12.000000
  0.135394  0.101857  0.000000     12.000000
  0.139497  0.104226  0.000000     12.000000
  0.143599  0.106595  0.000000     12.000000
  0.147702  0.108964  0.000000     12.000000
  0.151805  0.111332  0.000000     12.000000
  0.155908  0.113701  0.000000     12.000000
  0.160011  0.116070  0.000000     12.000000
  0.164114  0.118439  0.000000     12.000000
  0.168216  0.120808  0.000000     12.000000
  0.172319  0.123176  0.000000     12.000000
  0.176422  0.125545  0.000000     12.000000
  0.180525  0.127914  0.000000     12.000000
  0.184628  0.130283  0.000000     12.000000
  0.188731  0.132651  0.000000     12.000000
  0.024617  0.042638  0.000000      6.000000
  0.028720  0.045007  0.000000     12.000000
  0.032823  0.047376  0.000000     12.000000
  0.036926  0.049744  0.000000     12.000000
  0.041028  0.052113  0.000000     12.000000
  0.045131  0.054482  0.000000     12.000000
  0.049234  0.056851  0.000000     12.000000
  0.053337  0.059219  0.000000     12.000000
  0.057440  0.061588  0.000000     12.000000
  0.061543  0.063957  0.000000     12.000000
  0.065645  0.066326  0.000000     12.000000
  0.069748  0.068694  0.000000     12.000000
  0.073851  0.071063  0.000000     12.000000
  0.077954  0.073432  0.000000     12.000000
  0.082057  0.075801  0.000000     12.000000
  0.086160  0.078170  0.000000     12.000000
  0.090262  0.080538  0.000000     12.000000
  0.094365  0.082907  0.000000     12.000000
  0.098468  0.085276  0.000000     12.000000
  0.102571  0.087645  0.000000     12.000000
  0.106674  0.090013  0.000000     12.000000
  0.110777  0.092382  0.000000     12.000000
  0.114879  0.094751  0.000000     12.000000
  0.118982  0.097120  0.000000     12.000000
  0.123085  0.099489  0.000000     12.000000
  0.127188  0.101857  0.000000     12.000000
  0.131291  0.104226  0.000000     12.000000
  0.135394  0.106595  0.000000     12.000000
  0.139497  0.108964  0.000000     12.000000
  0.143599  0.111332  0.000000     12.000000
  0.147702  0.113701  0.000000     12.000000
  0.151805  0.116070  0.000000     12.000000
  0.155908  0.118439  0.000000     12.000000
  0.160011  0.120808  0.000000     12.000000
  0.164114  0.123176  0.000000     12.000000
  0.168216  0.125545  0.000000     12.000000
  0.172319  0.127914  0.000000     12.000000
  0.176422  0.130283  0.000000     12.000000
  0.180525  0.132651  0.000000     12.000000
  0.184628  0.135020  0.000000     12.000000
  0.188731  0.137389  0.000000      6.000000
  0.028720  0.049744  0.000000      6.000000
  0.032823  0.052113  0.000000     12.000000
  0.036926  0.054482  0.000000     12.000000
  0.041028  0.056851  0.000000     12.000000
  0.045131  0.059219  0.000000     12.000000
  0.049234  0.061588  0.000000     12.000000
  0.053337  0.063957  0.000000     12.000000
  0.057440  0.066326  0.000000     12.000000
  0.061543  0.068694  0.000000     12.000000
  0.065645  0.071063  0.000000     12.000000
  0.069748  0.073432  0.000000     12.000000
  0.073851  0.075801  0.000000     12.000000
  0.077954  0.078170  0.000000     12.000000
  0.082057  0.080538  0.000000     12.000000
  0.086160  0.082907  0.000000     12.000000
  0.090262  0.085276  0.000000     12.000000
  0.094365  0.087645  0.000000     12.000000
  0.098468  0.090013  0.000000     12.000000
  0.102571  0.092382  0.000000     12.000000
  0.106674  0.094751  0.000000     12.000000
  0.110777  0.097120  0.000000     12.000000
  0.114879  0.099489  0.000000     12.000000
  0.118982  0.101857  0.000000     12.000000
  0.123085  0.104226  0.000000     12.000000
  0.127188  0.106595  0.000000     12.000000
  0.131291  0.108964  0.000000     12.000000
  0.135394  0.111332  0.000000     12.000000
  0.139497  0.113701  0.000000     12.000000
  0.143599  0.116070  0.000000     12.000000
  0.147702  0.118439  0.000000     12.000000
  0.151805  0.120808  0.000000     12.000000
  0.155908  0.123176  0.000000     12.000000
  0.160011  0.125545  0.000000     12.000000
  0.164114  0.127914  0.000000     12.000000
  0.168216  0.130283  0.000000     12.000000
  0.172319  0.132651  0.000000     12.000000
  0.176422  0.135020  0.000000     12.000000
  0.180525  0.137389  0.000000     12.000000
  0.184628  0.139758  0.000000     12.000000
  0.032823  0.056851  0.000000      6.000000
  0.036926  0.059219  0.000000     12.000000
  0.041028  0.061588  0.000000     12.000000
  0.045131  0.063957  0.000000     12.000000
  0.049234  0.066326  0.000000     12.000000
  0.053337  0.068694  0.000000     12.000000
  0.057440  0.071063  0.000000     12.000000
  0.061543  0.073432  0.000000     12.000000
  0.065645  0.075801  0.000000     12.000000
  0.069748  0.078170  0.000000     12.000000
  0.073851  0.080538  0.000000     12.000000
  0.077954  0.082907  0.000000     12.000000
  0.082057  0.085276  0.000000     12.000000
  0.086160  0.087645  0.000000     12.000000
  0.090262  0.090013  0.000000     12.000000
  0.094365  0.092382  0.000000     12.000000
  0.098468  0.094751  0.000000     12.000000
  0.102571  0.097120  0.000000     12.000000
  0.106674  0.099489  0.000000     12.000000
  0.110777  0.101857  0.000000     12.000000
  0.114879  0.104226  0.000000     12.000000
  0.118982  0.106595  0.000000     12.000000
  0.123085  0.108964  0.000000     12.000000
  0.127188  0.111332  0.000000     12.000000
  0.131291  0.113701  0.000000     12.000000
  0.135394  0.116070  0.000000     12.000000
  0.139497  0.118439  0.000000     12.000000
  0.143599  0.120808  0.000000     12.000000
  0.147702  0.123176  0.000000     12.000000
  0.151805  0.125545  0.000000     12.000000
  0.155908  0.127914  0.000000     12.000000
  0.160011  0.130283  0.000000     12.000000
  0.164114  0.132651  0.000000     12.000000
  0.168216  0.135020  0.000000     12.000000
  0.172319  0.137389  0.000000     12.000000
  0.176422  0.139758  0.000000     12.000000
  0.180525  0.142127  0.000000     12.000000
  0.184628  0.144495  0.000000      6.000000
  0.036926  0.063957  0.000000      6.000000
  0.041028  0.066326  0.000000     12.000000
  0.045131  0.068694  0.000000     12.000000
  0.049234  0.071063  0.000000     12.000000
  0.053337  0.073432  0.000000     12.000000
  0.057440  0.075801  0.000000     12.000000
  0.061543  0.078170  0.000000     12.000000
  0.065645  0.080538  0.000000     12.000000
  0.069748  0.082907  0.000000     12.000000
  0.073851  0.085276  0.000000     12.000000
  0.077954  0.087645  0.000000     12.000000
  0.082057  0.090013  0.000000     12.000000
  0.086160  0.092382  0.000000     12.000000
  0.090262  0.094751  0.000000     12.000000
  0.094365  0.097120  0.000000     12.000000
  0.098468  0.099489  0.000000     12.000000
  0.102571  0.101857  0.000000     12.000000
  0.106674  0.104226  0.000000     12.000000
  0.110777  0.106595  0.000000     12.000000
  0.114879  0.108964  0.000000     12.000000
  0.118982  0.111332  0.000000     12.000000
  0.123085  0.113701  0.000000     12.000000
  0.127188  0.116070  0.000000     12.000000
  0.131291  0.118439  0.000000     12.000000
  0.135394  0.120808  0.000000     12.000000
  0.139497  0.123176  0.000000     12.000000
  0.143599  0.125545  0.000000     12.000000
  0.147702  0.127914  0.000000     12.000000
  0.151805  0.130283  0.000000     12.000000
  0.155908  0.132651  0.000000     12.000000
  0.160011  0.135020  0.000000     12.000000
  0.164114  0.137389  0.000000     12.000000
  0.168216  0.139758  0.000000     12.000000
  0.172319  0.142127  0.000000     12.000000
  0.176422  0.144495  0.000000     12.000000
  0.180525  0.146864  0.000000     12.000000
  0.041028  0.071063  0.000000      6.000000
  0.045131  0.073432  0.000000     12.000000
  0.049234  0.075801  0.000000     12.000000
  0.053337  0.078170  0.000000     12.000000
  0.057440  0.080538  0.000000     12.000000
  0.061543  0.082907  0.000000     12.000000
  0.065645  0.085276  0.000000     12.000000
  0.069748  0.087645  0.000000     12.000000
  0.073851  0.090013  0.000000     12.000000
  0.077954  0.092382  0.000000     12.000000
  0.082057  0.094751  0.000000     12.000000
  0.086160  0.097120  0.000000     12.000000
  0.090262  0.099489  0.000000     12.000000
  0.094365  0.101857  0.000000     12.000000
  0.098468  0.104226  0.000000     12.000000
  0.102571  0.106595  0.000000     12.000000
  0.106674  0.108964  0.000000     12.000000
  0.110777  0.111332  0.000000     12.000000
  0.114879  0.113701  0.000000     12.000000
  0.118982  0.116070  0.000000     12.000000
  0.123085  0.118439  0.000000     12.000000
  0.127188  0.120808  0.000000     12.000000
  0.131291  0.123176  0.000000     12.000000
  0.135394  0.125545  0.000000     12.000000
  0.139497  0.127914  0.000000     12.000000
  0.143599  0.130283  0.000000     12.000000
  0.147702  0.132651  0.000000     12.000000
  0.151805  0.135020  0.000000     12.000000
  0.155908  0.137389  0.000000     12.000000
  0.160011  0.139758  0.000000     12.000000
  0.164114  0.142127  0.000000     12.000000
  0.168216  0.144495  0.000000     12.000000
  0.172319  0.146864  0.000000     12.000000
  0.176422  0.149233  0.000000     12.000000
  0.180525  0.151602  0.000000      6.000000
  0.045131  0.078170  0.000000      6.000000
  0.049234  0.080538  0.000000     12.000000
  0.053337  0.082907  0.000000     12.000000
  0.057440  0.085276  0.000000     12.000000
  0.061543  0.087645  0.000000     12.000000
  0.065645  0.090013  0.000000     12.000000
  0.069748  0.092382  0.000000     12.000000
  0.073851  0.094751  0.000000     12.000000
  0.077954  0.097120  0.000000     12.000000
  0.082057  0.099489  0.000000     12.000000
  0.086160  0.101857  0.000000     12.000000
  0.090262  0.104226  0.000000     12.000000
  0.094365  0.106595  0.000000     12.000000
  0.098468  0.108964  0.000000     12.000000
  0.102571  0.111332  0.000000     12.000000
  0.106674  0.113701  0.000000     12.000000
  0.110777  0.116070  0.000000     12.000000
  0.114879  0.118439  0.000000     12.000000
  0.118982  0.120808  0.000000     12.000000
  0.123085  0.123176  0.000000     12.000000
  0.127188  0.125545  0.000000     12.000000
  0.131291  0.127914  0.000000     12.000000
[...]


NQ= 830    0.3163    0.2857    0.0000, 
       CHI:  cpu time     83.6370: real time     44.7989
   KRAMKRO:  cpu time     57.6935: real time     57.8200
       CHI:  cpu time    295.6075: real time    169.6241
   KRAMKRO:  cpu time     58.2337: real time     58.3615
    LFIELD:  cpu time      0.0001: real time      0.0001
  XI_LOCAL:  cpu time      1.9497: real time      1.9530
  XI_RED_T:  cpu time      0.0360: real time      0.0361
   XI_TO_W:  cpu time      0.0080: real time      0.0080
   CHI_SYM:  cpu time      0.1428: real time      0.1431
        GW:  cpu time    504.0208: real time    339.4722
 
 performed    3061870000 updates of chi_q(r,r)
 total number of BLAS operations 38014635.63 Gflops


--------------------------------------------------------------------------------------------------------


NQ= 831    0.3265    0.2857    0.0000, 
       CHI:  cpu time     84.0157: real time     45.0365
   KRAMKRO:  cpu time     59.9495: real time     60.0807
       CHI:  cpu time    292.7815: real time    166.8671
   KRAMKRO:  cpu time     55.7409: real time     55.8632
    LFIELD:  cpu time      0.0001: real time      0.0001
  XI_LOCAL:  cpu time      1.8451: real time      1.8487
  XI_RED_T:  cpu time      0.0377: real time      0.0378
   XI_TO_W:  cpu time      0.0085: real time      0.0085
   CHI_SYM:  cpu time      0.1449: real time      0.1452
        GW:  cpu time    501.3700: real time    336.7489
 
 performed    3065559000 updates of chi_q(r,r)
 total number of BLAS operations 38059000.08 Gflops


--------------------------------------------------------------------------------------------------------


NQ= 832    0.3367    0.2857    0.0000, 
       CHI:  cpu time     84.6718: real time     45.4735
   KRAMKRO:  cpu time     56.2217: real time     56.3448
       CHI:  cpu time    290.2965: real time    164.5222
   KRAMKRO:  cpu time     57.0243: real time     57.1492
    LFIELD:  cpu time      0.0001: real time      0.0001
  XI_LOCAL:  cpu time      1.8551: real time      1.8586
  XI_RED_T:  cpu time      0.0347: real time      0.0348
   XI_TO_W:  cpu time      0.0081: real time      0.0082
   CHI_SYM:  cpu time      0.1435: real time      0.1437
        GW:  cpu time    497.0665: real time    332.3608
 
 performed    3069248000 updates of chi_q(r,r)
 total number of BLAS operations 38103654.50 Gflops


--------------------------------------------------------------------------------------------------------


NQ= 833    0.3469    0.2857    0.0000, 
       CHI:  cpu time     84.5323: real time     45.3612
   KRAMKRO:  cpu time     55.3700: real time     55.4914
       CHI:  cpu time    289.7173: real time    163.7643
   KRAMKRO:  cpu time     64.0400: real time     64.1805
    LFIELD:  cpu time      0.0001: real time      0.0001
  XI_LOCAL:  cpu time      1.8576: real time      1.8613
  XI_RED_T:  cpu time      0.0342: real time      0.0342
   XI_TO_W:  cpu time      0.0078: real time      0.0078
   CHI_SYM:  cpu time      0.1394: real time      0.1397
        GW:  cpu time    502.4626: real time    337.6193
 
 performed    3072937000 updates of chi_q(r,r)
 total number of BLAS operations 38148163.82 Gflops


--------------------------------------------------------------------------------------------------------


NQ= 834    0.3571    0.2857    0.0000, 
       CHI:  cpu time     83.3859: real time     44.5354
   KRAMKRO:  cpu time     56.3601: real time     56.4837
       CHI:  cpu time     53.2031: real time  32362.9512
   KRAMKRO:  cpu time      5.0657: real time      5.0769
    LFIELD:  cpu time      0.0001: real time      0.0000
  XI_LOCAL:  cpu time      0.5207: real time      0.5217
  XI_RED_T:  cpu time      0.0331: real time      0.0332
   XI_TO_W:  cpu time      0.0054: real time      0.0054
   CHI_SYM:  cpu time      0.1081: real time      0.1083
        GW:  cpu time    198.6904: real time  32469.7241
 
 performed    3076626000 updates of chi_q(r,r)
 total number of BLAS operations 38192673.13 Gflops


--------------------------------------------------------------------------------------------------------


NQ= 835    0.2959    0.2959    0.0000, 
       CHI:  cpu time     23.7387: real time     12.5212
   KRAMKRO:  cpu time      5.1690: real time      5.1803
       CHI:  cpu time     46.6025: real time     23.8314
   KRAMKRO:  cpu time      5.0225: real time      5.0336
    LFIELD:  cpu time      0.0000: real time      0.0000
  XI_LOCAL:  cpu time      0.5277: real time      0.5288
  XI_RED_T:  cpu time      0.0330: real time      0.0331
   XI_TO_W:  cpu time      0.0054: real time      0.0054
   CHI_SYM:  cpu time      0.1159: real time      0.1161
        GW:  cpu time     81.2221: real time     47.2573
 
 performed    3080315000 updates of chi_q(r,r)
 total number of BLAS operations 38237400.19 Gflops


--------------------------------------------------------------------------------------------------------


NQ= 836    0.3061    0.2959    0.0000, 
       CHI:  cpu time     23.7870: real time     12.5481
   KRAMKRO:  cpu time      5.1663: real time      5.1776
       CHI:  cpu time     46.0933: real time     23.5753
   KRAMKRO:  cpu time      5.0488: real time      5.0599
    LFIELD:  cpu time      0.0000: real time      0.0000
  XI_LOCAL:  cpu time      0.5341: real time      0.5352
  XI_RED_T:  cpu time      0.0288: real time      0.0289
   XI_TO_W:  cpu time      0.0053: real time      0.0053
   CHI_SYM:  cpu time      0.1095: real time      0.1097
        GW:  cpu time     80.7805: real time     47.0474
 
 performed    3084004000 updates of chi_q(r,r)
 total number of BLAS operations 38281837.05 Gflops


--------------------------------------------------------------------------------------------------------


NQ= 837    0.3163    0.2959    0.0000, 
       CHI:  cpu time     23.7146: real time     12.5085
   KRAMKRO:  cpu time      5.1950: real time      5.2064
       CHI:  cpu time     46.3944: real time     23.7261
   KRAMKRO:  cpu time      5.0478: real time      5.0589
    LFIELD:  cpu time      0.0000: real time      0.0000
  XI_LOCAL:  cpu time      0.5195: real time      0.5205
  XI_RED_T:  cpu time      0.0330: real time      0.0331
   XI_TO_W:  cpu time      0.0054: real time      0.0054
   CHI_SYM:  cpu time      0.1155: real time      0.1156
        GW:  cpu time     81.0327: real time     47.1821
 
 performed    3087693000 updates of chi_q(r,r)
 total number of BLAS operations 38326346.37 Gflops


--------------------------------------------------------------------------------------------------------


NQ= 838    0.3265    0.2959    0.0000, 
       CHI:  cpu time     23.7946: real time     12.5512
   KRAMKRO:  cpu time      5.1647: real time      5.1761
       CHI:  cpu time     46.2589: real time     23.6586
   KRAMKRO:  cpu time      5.0192: real time      5.0302
    LFIELD:  cpu time      0.0000: real time      0.0000
  XI_LOCAL:  cpu time      0.5241: real time      0.5252
  XI_RED_T:  cpu time      0.0326: real time      0.0327
   XI_TO_W:  cpu time      0.0054: real time      0.0054
   CHI_SYM:  cpu time      0.1156: real time      0.1158
        GW:  cpu time     80.9227: real time     47.1027
 
 performed    3091382000 updates of chi_q(r,r)
 total number of BLAS operations 38371000.78 Gflops


--------------------------------------------------------------------------------------------------------


NQ= 839    0.3367    0.2959    0.0000, 
       CHI:  cpu time     23.8012: real time     12.5527
   KRAMKRO:  cpu time      5.1778: real time      5.1891
       CHI:  cpu time     46.1778: real time     23.6180
   KRAMKRO:  cpu time      5.0524: real time      5.0635
    LFIELD:  cpu time      0.0000: real time      0.0000
  XI_LOCAL:  cpu time      0.5206: real time      0.5217
  XI_RED_T:  cpu time      0.0342: real time      0.0342
   XI_TO_W:  cpu time      0.0054: real time      0.0054
   CHI_SYM:  cpu time      0.1148: real time      0.1150
        GW:  cpu time     80.8916: real time     47.1071
 
 performed    3095071000 updates of chi_q(r,r)
 total number of BLAS operations 38415510.10 Gflops


--------------------------------------------------------------------------------------------------------


NQ= 840    0.3469    0.2959    0.0000, 
       CHI:  cpu time     23.8133: real time     12.5604
   KRAMKRO:  cpu time      5.1534: real time      5.1648
       CHI:  cpu time     46.0868: real time     23.5737
   KRAMKRO:  cpu time      5.0255: real time      5.0366
    LFIELD:  cpu time      0.0000: real time      0.0000
  XI_LOCAL:  cpu time      0.5214: real time      0.5225
  XI_RED_T:  cpu time      0.0327: real time      0.0328
   XI_TO_W:  cpu time      0.0054: real time      0.0054
   CHI_SYM:  cpu time      0.1142: real time      0.1144
        GW:  cpu time     80.7602: real time     47.0179
 
 performed    3098760000 updates of chi_q(r,r)
 total number of BLAS operations 38460019.42 Gflops


--------------------------------------------------------------------------------------------------------


NQ= 841    0.3061    0.3061    0.0000, 
       CHI:  cpu time     23.7738: real time     12.5398
   KRAMKRO:  cpu time      5.1898: real time      5.2012
       CHI:  cpu time     46.2641: real time     23.6597
   KRAMKRO:  cpu time      5.0203: real time      5.0312
    LFIELD:  cpu time      0.0000: real time      0.0000
  XI_LOCAL:  cpu time      0.5195: real time      0.5205
  XI_RED_T:  cpu time      0.0329: real time      0.0330
   XI_TO_W:  cpu time      0.0054: real time      0.0054
   CHI_SYM:  cpu time      0.1146: real time      0.1148
        GW:  cpu time     80.9276: real time     47.1129
 
 performed    3102449000 updates of chi_q(r,r)
 total number of BLAS operations 38504167.02 Gflops


--------------------------------------------------------------------------------------------------------


NQ= 842    0.3163    0.3061    0.0000, 
       CHI:  cpu time     23.7952: real time     12.5506
   KRAMKRO:  cpu time      5.1634: real time      5.1747
       CHI:  cpu time     46.2301: real time     23.6444
   KRAMKRO:  cpu time      5.0276: real time      5.0386
    LFIELD:  cpu time      0.0000: real time      0.0000
  XI_LOCAL:  cpu time      0.5207: real time      0.5218
  XI_RED_T:  cpu time      0.0326: real time      0.0327
   XI_TO_W:  cpu time      0.0054: real time      0.0054
   CHI_SYM:  cpu time      0.1149: real time      0.1150
        GW:  cpu time     80.8972: real time     47.0907
 
 performed    3106138000 updates of chi_q(r,r)
 total number of BLAS operations 38548531.48 Gflops


--------------------------------------------------------------------------------------------------------


NQ= 843    0.3265    0.3061    0.0000, 
       CHI:  cpu time     23.8027: real time     12.5549
   KRAMKRO:  cpu time      5.1757: real time      5.1870
       CHI:  cpu time     46.1778: real time     23.6188
   KRAMKRO:  cpu time      5.0264: real time      5.0375
    LFIELD:  cpu time      0.0000: real time      0.0000
  XI_LOCAL:  cpu time      0.5157: real time      0.5168
  XI_RED_T:  cpu time      0.0335: real time      0.0336
   XI_TO_W:  cpu time      0.0054: real time      0.0054
   CHI_SYM:  cpu time      0.1139: real time      0.1141
        GW:  cpu time     80.8585: real time     47.0755
 
 performed    3109827000 updates of chi_q(r,r)
 total number of BLAS operations 38592751.25 Gflops


--------------------------------------------------------------------------------------------------------


NQ= 844    0.3367    0.3061    0.0000, 
       CHI:  cpu time     23.7814: real time     12.5423
   KRAMKRO:  cpu time      5.1580: real time      5.1694
       CHI:  cpu time     46.4437: real time     23.7537
   KRAMKRO:  cpu time      5.0135: real time      5.0245
    LFIELD:  cpu time      0.0000: real time      0.0000
  XI_LOCAL:  cpu time      0.5160: real time      0.5170
  XI_RED_T:  cpu time      0.0342: real time      0.0342
   XI_TO_W:  cpu time      0.0054: real time      0.0054
   CHI_SYM:  cpu time      0.1149: real time      0.1151
        GW:  cpu time     81.0744: real time     47.1690
 
 performed    3113516000 updates of chi_q(r,r)
 total number of BLAS operations 38636971.03 Gflops


--------------------------------------------------------------------------------------------------------


NQ= 845    0.3469    0.3061    0.0000, 
       CHI:  cpu time     23.8121: real time     12.5598
   KRAMKRO:  cpu time      5.1556: real time      5.1669
       CHI:  cpu time     46.1164: real time     23.5894
   KRAMKRO:  cpu time      5.0361: real time      5.0472
    LFIELD:  cpu time      0.0001: real time      0.0000
  XI_LOCAL:  cpu time      0.5205: real time      0.5216
  XI_RED_T:  cpu time      0.0336: real time      0.0337
   XI_TO_W:  cpu time      0.0054: real time      0.0054
   CHI_SYM:  cpu time      0.1142: real time      0.1143
        GW:  cpu time     80.8011: real time     47.0455
 
 performed    3117205000 updates of chi_q(r,r)
 total number of BLAS operations 38681335.34 Gflops


--------------------------------------------------------------------------------------------------------


NQ= 846    0.3163    0.3163    0.0000, 
       CHI:  cpu time     23.8039: real time     12.5545
   KRAMKRO:  cpu time      5.1650: real time      5.1763
       CHI:  cpu time     45.8319: real time     23.4428
   KRAMKRO:  cpu time      5.0421: real time      5.0532
    LFIELD:  cpu time      0.0000: real time      0.0000
  XI_LOCAL:  cpu time      0.5142: real time      0.5153
  XI_RED_T:  cpu time      0.0329: real time      0.0330
   XI_TO_W:  cpu time      0.0054: real time      0.0054
   CHI_SYM:  cpu time      0.1130: real time      0.1132
        GW:  cpu time     80.5159: real time     46.9011
 
 performed    3120894000 updates of chi_q(r,r)
 total number of BLAS operations 38725194.54 Gflops


--------------------------------------------------------------------------------------------------------


NQ= 847    0.3265    0.3163    0.0000, 
       CHI:  cpu time     23.7905: real time     12.5486
   KRAMKRO:  cpu time      5.1824: real time      5.1937
       CHI:  cpu time     45.8135: real time     23.4390
   KRAMKRO:  cpu time      5.0312: real time      5.0422
    LFIELD:  cpu time      0.0000: real time      0.0000
  XI_LOCAL:  cpu time      0.5150: real time      0.5161
  XI_RED_T:  cpu time      0.0322: real time      0.0323
   XI_TO_W:  cpu time      0.0053: real time      0.0053
   CHI_SYM:  cpu time      0.1146: real time      0.1147
        GW:  cpu time     80.4921: real time     46.8994
 
 performed    3124583000 updates of chi_q(r,r)
 total number of BLAS operations 38769197.77 Gflops


--------------------------------------------------------------------------------------------------------


NQ= 848    0.3367    0.3163    0.0000, 
       CHI:  cpu time     23.7977: real time     12.5522
   KRAMKRO:  cpu time      5.1830: real time      5.1943
       CHI:  cpu time     46.0669: real time     23.5630
   KRAMKRO:  cpu time      5.0663: real time      5.0774
    LFIELD:  cpu time      0.0000: real time      0.0000
  XI_LOCAL:  cpu time      0.5153: real time      0.5163
  XI_RED_T:  cpu time      0.0333: real time      0.0334
   XI_TO_W:  cpu time      0.0054: real time      0.0054
   CHI_SYM:  cpu time      0.1140: real time      0.1142
        GW:  cpu time     80.7892: real time     47.0635
 
 performed    3128272000 updates of chi_q(r,r)
 total number of BLAS operations 38813200.91 Gflops


--------------------------------------------------------------------------------------------------------


NQ= 849    0.3265    0.3265    0.0000, 
       CHI:  cpu time     23.8143: real time     12.5600
   KRAMKRO:  cpu time      5.1988: real time      5.2102
       CHI:  cpu time     45.9186: real time     23.4914
   KRAMKRO:  cpu time      5.0618: real time      5.0730
    LFIELD:  cpu time      0.0000: real time      0.0000
  XI_LOCAL:  cpu time      0.5146: real time      0.5157
  XI_RED_T:  cpu time      0.0332: real time      0.0333
   XI_TO_W:  cpu time      0.0053: real time      0.0054
   CHI_SYM:  cpu time      0.1136: real time      0.1138
        GW:  cpu time     80.6678: real time     47.0101
 
 performed    3131961000 updates of chi_q(r,r)
 total number of BLAS operations 38857059.97 Gflops


--------------------------------------------------------------------------------------------------------


NQ= 850    0.3367    0.3265    0.0000, 
       CHI:  cpu time     23.8139: real time     12.5607
   KRAMKRO:  cpu time      5.2037: real time      5.2152
       CHI:  cpu time     46.1179: real time     23.5888
   KRAMKRO:  cpu time      5.0659: real time      5.0770
    LFIELD:  cpu time      0.0000: real time      0.0000
  XI_LOCAL:  cpu time      0.5191: real time      0.5201
  XI_RED_T:  cpu time      0.0334: real time      0.0334
   XI_TO_W:  cpu time      0.0054: real time      0.0054
   CHI_SYM:  cpu time      0.1140: real time      0.1141
        GW:  cpu time     80.8808: real time     47.1224
 
 performed    3135650000 updates of chi_q(r,r)
 total number of BLAS operations 38901207.23 Gflops
    GWLOOP:  cpu time  74417.8680: real time  76178.2945
  LATTYP: Found a hexagonal cell.
 ALAT       =     2.4870784119
 C/A-ratio  =     9.4488375949
  
  Lattice vectors:
  
 A1 = (   2.4870784119,  -0.0000000000,   0.0000000000)
 A2 = (  -1.2435392060,   2.1538730846,   0.0000000000)
 A3 = (   0.0000000000,   0.0000000000,  23.5000000000)


Analysis of symmetry for initial positions (statically):
=====================================================================
 Subroutine PRICEL returns:
 Original cell was already a primitive cell.
 

 Routine SETGRP: Setting up the symmetry group for a 
 hexagonal supercell.


 Subroutine GETGRP returns: Found  6 space group operations
 (whereof  6 operations were pure point group operations)
 out of a pool of 24 trial point group operations.


The static configuration has the point symmetry C_3v.


Analysis of symmetry for dynamics (positions and initial velocities):
=====================================================================
 Subroutine PRICEL returns:
 Original cell was already a primitive cell.
 

 Routine SETGRP: Setting up the symmetry group for a 
 hexagonal supercell.


 Subroutine GETGRP returns: Found  6 space group operations
 (whereof  6 operations were pure point group operations)
 out of a pool of 24 trial point group operations.


The dynamic configuration has the point symmetry C_3v.


 Subroutine INISYM returns: Found  6 space group operations
 (whereof  6 operations are pure point group operations),
 and found     1 'primitive' translations

    --------------------------------------------
   GWTOTAL:  cpu time  74423.9742: real time  76183.8565
    4ORBIT:  cpu time      0.0000: real time      0.0000

 total amount of memory used by VASP MPI-rank0   511091. kBytes
=======================================================================

   base      :      30000. kBytes
   nonl-proj :     381384. kBytes
   fftplans  :        535. kBytes
   grid      :       2300. kBytes
   one-center:         12. kBytes
   HF        :         27. kBytes
   nonlr-proj:        221. kBytes
   wavefun   :      96612. kBytes
   response  :          0. kBytes
 
  
  
 General timing and accounting informations for this job:
 ========================================================
  
                  Total CPU time used (sec):    74448.211
                            User time (sec):    72936.499
                          System time (sec):     1511.715
                         Elapsed time (sec):    76207.549
  
                   Maximum memory used (kb):    11238160.
                   Average memory used (kb):          N/A
  
                          Minor page faults:     37588784
                          Major page faults:            0
                 Voluntary context switches:       266292
