 vasp.6.3.0 20Jan22 (build May 12 2022 16:34:25) complex                        
  
 executed on GNU/Linux-IFC-IntelM date 2022.11.11  20:13:48
 running  912 mpi-ranks, with    2 threads/rank
 distrk:  each k-point on  114 cores,    8 groups
 distr:  one band on NCORE=   1 cores,  114 groups


--------------------------------------------------------------------------------------------------------


 INCAR:
   SYSTEM = BN/gr
   ISTART = 1
   KPAR = 8
   ENCUT = 400
   PREC = Accurate
   EDIFF = 1E-8
   ISMEAR = 0
   SIGMA = 0.1
   NELMIN = 2
   NELM = 100
   NBANDS = 114
   LCHARG = .F.
   LWAVE = .F.
   IVDW = 11
   ALGO = CHI
   LRPA = .T.
   NOMEGA = 200
   OMEGAMAX = 5
   CSHIFT = 0.100
   NEDOS = 1000

 POTCAR:    PAW_PBE N 08Apr2002                   
 POTCAR:    PAW_PBE B 06Sep2000                   
 POTCAR:    PAW_PBE C 08Apr2002                   
 POTCAR:    PAW_PBE N 08Apr2002                   
   VRHFIN =N: s2p3                                                                                  
   LEXCH  = PE                                                                                      
   EATOM  =   264.5486 eV,   19.4438 Ry                                                             
                                                                                                    
   TITEL  = PAW_PBE N 08Apr2002                                                                     
   LULTRA =        F    use ultrasoft PP ?                                                          
   IUNSCR =        1    unscreen: 0-lin 1-nonlin 2-no                                               
   RPACOR =    1.200    partial core radius                                                         
   POMASS =   14.001; ZVAL   =    5.000    mass and valenz                                          
   RCORE  =    1.500    outmost cutoff radius                                                       
   RWIGS  =    1.400; RWIGS  =    0.741    wigner-seitz radius (au A)                               
   ENMAX  =  400.000; ENMIN  =  300.000 eV                                                          
   ICORE  =        2    local potential                                                             
   LCOR   =        T    correct aug charges                                                         
   LPAW   =        T    paw PP                                                                      
   EAUG   =  627.112                                                                                
   DEXC   =    0.000                                                                                
   RMAX   =    1.529    core radius for proj-oper                                                   
   RAUG   =    1.300    factor for augmentation sphere                                              
   RDEP   =    1.514    radius for radial grids                                                     
   RDEPT  =    1.338    core radius for aug-charge                                                  
                                                                                                    
   Atomic configuration                                                                             
    4 entries                                                                                       
     n  l   j            E        occ.                                                              
     1  0  0.50      -384.7179   2.0000                                                             
     2  0  0.50       -18.5828   2.0000                                                             
     2  1  0.50        -7.0898   3.0000                                                             
     3  2  1.50        -6.8029   0.0000                                                             
   Description                                                                                      
     l       E           TYP  RCUT    TYP  RCUT                                                     
     0    -18.5828119     23  1.200                                                                 
     0    -13.5018863     23  1.200                                                                 
     1     -7.0897853     23  1.500                                                                 
     1      9.5240782     23  1.500                                                                 
     2     -6.8029130      7  1.500                                                                 
  local pseudopotential read in
  partial core-charges read in
  partial kinetic energy density read in
  atomic valenz-charges read in
  non local Contribution for L=           0  read in
    real space projection operators read in
  non local Contribution for L=           0  read in
    real space projection operators read in
  non local Contribution for L=           1  read in
    real space projection operators read in
  non local Contribution for L=           1  read in
    real space projection operators read in
    PAW grid and wavefunctions read in
 
   number of l-projection  operators is LMAX  =           4
   number of lm-projection operators is LMMAX =           8
 
 POTCAR:    PAW_PBE B 06Sep2000                   
   VRHFIN =B: s2p1                                                                                  
   LEXCH  = PE                                                                                      
   EATOM  =    71.1703 eV,    5.2309 Ry                                                             
                                                                                                    
   TITEL  = PAW_PBE B 06Sep2000                                                                     
   LULTRA =        F    use ultrasoft PP ?                                                          
   IUNSCR =        1    unscreen: 0-lin 1-nonlin 2-no                                               
   RPACOR =    1.200    partial core radius                                                         
   POMASS =   10.811; ZVAL   =    3.000    mass and valenz                                          
   RCORE  =    1.700    outmost cutoff radius                                                       
   RWIGS  =    1.710; RWIGS  =    0.905    wigner-seitz radius (au A)                               
   ENMAX  =  318.614; ENMIN  =  238.960 eV                                                          
   ICORE  =        2    local potential                                                             
   LCOR   =        T    correct aug charges                                                         
   LPAW   =        T    paw PP                                                                      
   EAUG   =  535.514                                                                                
   DEXC   =    0.000                                                                                
   RMAX   =    1.732    core radius for proj-oper                                                   
   RAUG   =    1.300    factor for augmentation sphere                                              
   RDEP   =    1.757    radius for radial grids                                                     
   RDEPT  =    1.436    core radius for aug-charge                                                  
                                                                                                    
   Atomic configuration                                                                             
    4 entries                                                                                       
     n  l   j            E        occ.                                                              
     1  0  0.50      -180.5896   2.0000                                                             
     2  0  0.50        -9.4431   2.0000                                                             
     2  1  0.50        -3.6068   1.0000                                                             
     3  2  1.50        -4.0817   0.0000                                                             
   Description                                                                                      
     l       E           TYP  RCUT    TYP  RCUT                                                     
     0     -9.4430752     23  1.500                                                                 
     0      0.8675899     23  1.500                                                                 
     1     -3.6067955     23  1.700                                                                 
     1      6.1086146     23  1.700                                                                 
     2     -4.0817478      7  1.700                                                                 
  local pseudopotential read in
  partial core-charges read in
  partial kinetic energy density read in
  atomic valenz-charges read in
  non local Contribution for L=           0  read in
    real space projection operators read in
  non local Contribution for L=           0  read in
    real space projection operators read in
  non local Contribution for L=           1  read in
    real space projection operators read in
  non local Contribution for L=           1  read in
    real space projection operators read in
    PAW grid and wavefunctions read in
 
   number of l-projection  operators is LMAX  =           4
   number of lm-projection operators is LMMAX =           8
 
 POTCAR:    PAW_PBE C 08Apr2002                   
   VRHFIN =C: s2p2                                                                                  
   LEXCH  = PE                                                                                      
   EATOM  =   147.1560 eV,   10.8157 Ry                                                             
                                                                                                    
   TITEL  = PAW_PBE C 08Apr2002                                                                     
   LULTRA =        F    use ultrasoft PP ?                                                          
   IUNSCR =        1    unscreen: 0-lin 1-nonlin 2-no                                               
   RPACOR =    1.200    partial core radius                                                         
   POMASS =   12.011; ZVAL   =    4.000    mass and valenz                                          
   RCORE  =    1.500    outmost cutoff radius                                                       
   RWIGS  =    1.630; RWIGS  =    0.863    wigner-seitz radius (au A)                               
   ENMAX  =  400.000; ENMIN  =  300.000 eV                                                          
   ICORE  =        2    local potential                                                             
   LCOR   =        T    correct aug charges                                                         
   LPAW   =        T    paw PP                                                                      
   EAUG   =  644.873                                                                                
   DEXC   =    0.000                                                                                
   RMAX   =    1.529    core radius for proj-oper                                                   
   RAUG   =    1.300    factor for augmentation sphere                                              
   RDEP   =    1.501    radius for radial grids                                                     
   RDEPT  =    1.300    core radius for aug-charge                                                  
                                                                                                    
   Atomic configuration                                                                             
    4 entries                                                                                       
     n  l   j            E        occ.                                                              
     1  0  0.50      -273.3789   2.0000                                                             
     2  0  0.50       -13.7508   2.0000                                                             
     2  1  0.50        -5.2854   2.0000                                                             
     3  2  1.50        -5.4423   0.0000                                                             
   Description                                                                                      
     l       E           TYP  RCUT    TYP  RCUT                                                     
     0    -13.7508458     23  1.200                                                                 
     0     -8.2022199     23  1.200                                                                 
     1     -5.2854383     23  1.500                                                                 
     1     34.0145650     23  1.500                                                                 
     2     -5.4423304      7  1.500                                                                 
  local pseudopotential read in
  partial core-charges read in
  partial kinetic energy density read in
  atomic valenz-charges read in
  non local Contribution for L=           0  read in
    real space projection operators read in
  non local Contribution for L=           0  read in
    real space projection operators read in
  non local Contribution for L=           1  read in
    real space projection operators read in
  non local Contribution for L=           1  read in
    real space projection operators read in
    PAW grid and wavefunctions read in
 
   number of l-projection  operators is LMAX  =           4
   number of lm-projection operators is LMMAX =           8
 
 -----------------------------------------------------------------------------
|                                                                             |
|               ----> ADVICE to this user running VASP <----                  |
|                                                                             |
|     You have a (more or less) 'large supercell' and for larger cells it     |
|     might be more efficient to use real-space projection operators.         |
|     Therefore, try LREAL= Auto in the INCAR file.                           |
|     Mind: For very accurate calculation, you might also keep the            |
|     reciprocal projection scheme (i.e. LREAL=.FALSE.).                      |
|                                                                             |
 -----------------------------------------------------------------------------

  PAW_PBE N 08Apr2002                   :
 energy of atom  1       EATOM= -264.5486
 kinetic energy error for atom=    0.0736 (will be added to EATOM!!)
  PAW_PBE B 06Sep2000                   :
 energy of atom  2       EATOM=  -71.1703
 kinetic energy error for atom=    0.0020 (will be added to EATOM!!)
  PAW_PBE C 08Apr2002                   :
 energy of atom  3       EATOM= -147.1560
 kinetic energy error for atom=    0.0288 (will be added to EATOM!!)
 
 
 POSCAR: 21-degree-smallest-config
  positions in direct lattice
  velocities in cartesian coordinates
 -----------------------------------------------------------------------------
|                                                                             |
|           W    W    AA    RRRRR   N    N  II  N    N   GGGG   !!!           |
|           W    W   A  A   R    R  NN   N  II  NN   N  G    G  !!!           |
|           W    W  A    A  R    R  N N  N  II  N N  N  G       !!!           |
|           W WW W  AAAAAA  RRRRR   N  N N  II  N  N N  G  GGG   !            |
|           WW  WW  A    A  R   R   N   NN  II  N   NN  G    G                |
|           W    W  A    A  R    R  N    N  II  N    N   GGGG   !!!           |
|                                                                             |
|     The default for ENCUTGWSOFT is different in this version of VASP.       |
|     If you wish to obtain identical results as using pre vasp.6.3           |
|     please manually set ENCUTGWSOFT =266.667 in the INCAR file.             |
|                                                                             |
 -----------------------------------------------------------------------------

 exchange correlation table for  LEXCH =        8
   RHO(1)=    0.500       N(1)  =     2000
   RHO(2)=  100.500       N(2)  =     4000
 


--------------------------------------------------------------------------------------------------------


 ion  position               nearest neighbor table
   1  0.190  0.952  0.504-   9 1.42  13 1.42   8 1.42
   2  0.333  0.667  0.504-   9 1.42  14 1.42  10 1.42
   3  0.476  0.381  0.504-   8 1.42  11 1.42  10 1.42
   4  0.619  0.095  0.504-  12 1.42  11 1.42   9 1.42
   5  0.762  0.810  0.504-  10 1.42  12 1.42  13 1.42
   6  0.905  0.524  0.504-  13 1.42  11 1.42  14 1.42
   7  0.048  0.238  0.504-  14 1.42   8 1.42  12 1.42
   8  0.238  0.190  0.504-   3 1.42   7 1.42   1 1.42
   9  0.381  0.905  0.504-   2 1.42   1 1.42   4 1.42
  10  0.524  0.619  0.504-   5 1.42   2 1.42   3 1.42
  11  0.667  0.333  0.504-   4 1.42   6 1.42   3 1.42
  12  0.810  0.048  0.504-   4 1.42   5 1.42   7 1.42
  13  0.952  0.762  0.504-   6 1.42   1 1.42   5 1.42
  14  0.095  0.476  0.504-   7 1.42   2 1.42   6 1.42
  15  0.190  0.238  0.354-  22 1.42  26 1.42  28 1.42
  16  0.476  0.095  0.354-  22 1.42  27 1.42  23 1.42
  17  0.762  0.952  0.354-  28 1.42  23 1.42  24 1.42
  18  0.048  0.810  0.354-  24 1.42  25 1.42  22 1.42
  19  0.333  0.667  0.354-  25 1.42  23 1.42  26 1.42
  20  0.619  0.524  0.354-  24 1.42  27 1.42  26 1.42
  21  0.905  0.381  0.354-  28 1.42  27 1.42  25 1.42
  22  0.238  0.048  0.354-  15 1.42  16 1.42  18 1.42
  23  0.524  0.905  0.354-  17 1.42  19 1.42  16 1.42
  24  0.810  0.762  0.354-  18 1.42  20 1.42  17 1.42
  25  0.095  0.619  0.354-  18 1.42  19 1.42  21 1.42
  26  0.381  0.476  0.354-  15 1.42  19 1.42  20 1.42
  27  0.667  0.333  0.354-  21 1.42  16 1.42  20 1.42
  28  0.952  0.190  0.354-  17 1.42  21 1.42  15 1.42
 
  LATTYP: Found a hexagonal cell.
 ALAT       =     6.5275182621
 C/A-ratio  =     3.6001431258
  
  Lattice vectors:
  
 A1 = (   6.5275182621,   0.0000000000,   0.0000000000)
 A2 = (  -3.2637595517,   5.6529973650,   0.0000000000)
 A3 = (   0.0000000000,   0.0000000000,  23.5000000000)


Analysis of symmetry for initial positions (statically):
=====================================================================
 Subroutine PRICEL returns:
 Original cell was already a primitive cell.
 

 Routine SETGRP: Setting up the symmetry group for a 
 hexagonal supercell.


 Subroutine GETGRP returns: Found  3 space group operations
 (whereof  3 operations were pure point group operations)
 out of a pool of 24 trial point group operations.


The static configuration has the point symmetry C_3 .


Analysis of symmetry for dynamics (positions and initial velocities):
=====================================================================
 Subroutine PRICEL returns:
 Original cell was already a primitive cell.
 

 Routine SETGRP: Setting up the symmetry group for a 
 hexagonal supercell.


 Subroutine GETGRP returns: Found  3 space group operations
 (whereof  3 operations were pure point group operations)
 out of a pool of 24 trial point group operations.


The dynamic configuration has the point symmetry C_3 .


 Subroutine INISYM returns: Found  3 space group operations
 (whereof  3 operations are pure point group operations),
 and found     1 'primitive' translations


----------------------------------------------------------------------------------------

                                     Primitive cell                                     

  volume of cell :     867.1510

  direct lattice vectors                    reciprocal lattice vectors
     6.527518262  0.000000000  0.000000000     0.153197580  0.088448664  0.000000000
    -3.263759552  5.652997365  0.000000000     0.000000000  0.176897305  0.000000000
     0.000000000  0.000000000 23.500000000     0.000000000  0.000000000  0.042553191

  length of vectors
     6.527518262  6.527519101 23.500000000     0.176897328  0.176897305  0.042553191

  position of ions in fractional coordinates (direct lattice)
     0.190482469  0.952339591  0.503856310
     0.333332994  0.666667021  0.503923808
     0.476148096  0.380874225  0.503626395
     0.619125780  0.095273888  0.503626395
     0.761857175  0.809517567  0.503856310
     0.904726160  0.523851962  0.503626395
     0.047660442  0.238142883  0.503856310
     0.238084695  0.190462380  0.503764719
     0.380971991  0.904757209  0.503782997
     0.523785191  0.619028067  0.503782997
     0.666667016  0.333333000  0.503547601
     0.809537659  0.047622324  0.503764719
     0.952377676  0.761915397  0.503764719
     0.095242900  0.476214851  0.503782997
     0.190497148  0.238094395  0.354221397
     0.476167414  0.095225540  0.354282589
     0.761905684  0.952402786  0.354221397
     0.047597271  0.809502860  0.354221397
     0.333332994  0.666667021  0.354207440
     0.619058146  0.523832654  0.354282589
     0.904774513  0.380941880  0.354282589
     0.238106894  0.047642230  0.354218803
     0.523809059  0.904747356  0.354244602
     0.809535358  0.761893203  0.354218803
     0.095252766  0.619061761  0.354244602
     0.380938257  0.476191010  0.354244602
     0.666667016  0.333333000  0.354327718
     0.952357723  0.190464668  0.354218803

  ion indices of the primitive-cell ions
   primitive index   ion index
                 1           1
                 2           2
                 3           3
                 4           4
                 5           5
                 6           6
                 7           7
                 8           8
                 9           9
                10          10
                11          11
                12          12
                13          13
                14          14
                15          15
                16          16
                17          17
                18          18
                19          19
                20          20
                21          21
                22          22
                23          23
                24          24
                25          25
                26          26
                27          27
                28          28

----------------------------------------------------------------------------------------

 
 
 KPOINTS: Automatic generation                    

Automatic generation of k-mesh.
 Grid dimensions read from file:
 generate k-points for:   24   24    1

 Generating k-lattice:

  Cartesian coordinates                     Fractional coordinates (reciprocal lattice)
     0.006383232  0.003685361  0.000000000     0.041666667 -0.000000000  0.000000000
     0.000000000  0.007370721  0.000000000     0.000000000  0.041666667  0.000000000
     0.000000000  0.000000000  0.042553191     0.000000000  0.000000000  1.000000000

  Length of vectors
     0.007370722  0.007370721  0.042553191

  Shift w.r.t. Gamma in fractional coordinates (k-lattice)
     0.000000000  0.000000000  0.000000000

 
 Subroutine IBZKPT returns following result:
 ===========================================
 
 Found     98 irreducible k-points:
 
 Following reciprocal coordinates:
            Coordinates               Weight
  0.000000  0.000000  0.000000      1.000000
  0.041667  0.000000  0.000000      6.000000
  0.083333  0.000000  0.000000      6.000000
  0.125000  0.000000  0.000000      6.000000
  0.166667  0.000000  0.000000      6.000000
  0.208333  0.000000  0.000000      6.000000
  0.250000  0.000000  0.000000      6.000000
  0.291667  0.000000  0.000000      6.000000
  0.333333 -0.000000  0.000000      6.000000
  0.375000  0.000000  0.000000      6.000000
  0.416667  0.000000  0.000000      6.000000
  0.458333  0.000000  0.000000      6.000000
  0.500000  0.000000  0.000000      3.000000
  0.041667  0.041667  0.000000      6.000000
  0.083333  0.041667  0.000000      6.000000
 -0.083333  0.125000  0.000000      6.000000
  0.125000  0.041667  0.000000      6.000000
 -0.125000  0.166667  0.000000      6.000000
  0.166667  0.041667  0.000000      6.000000
 -0.166667  0.208333  0.000000      6.000000
  0.208333  0.041667  0.000000      6.000000
 -0.208333  0.250000  0.000000      6.000000
  0.250000  0.041667  0.000000      6.000000
 -0.250000  0.291667  0.000000      6.000000
  0.291667  0.041667  0.000000      6.000000
 -0.291667  0.333333  0.000000      6.000000
  0.333333  0.041667  0.000000      6.000000
 -0.333333  0.375000  0.000000      6.000000
  0.375000  0.041667  0.000000      6.000000
 -0.375000  0.416667  0.000000      6.000000
  0.416667  0.041667  0.000000      6.000000
 -0.416667  0.458333  0.000000      6.000000
  0.458333  0.041667  0.000000      6.000000
 -0.458333  0.500000  0.000000      6.000000
  0.083333  0.083333  0.000000      6.000000
  0.125000  0.083333  0.000000      6.000000
 -0.125000  0.208333  0.000000      6.000000
  0.166667  0.083333  0.000000      6.000000
 -0.166667  0.250000  0.000000      6.000000
  0.208333  0.083333  0.000000      6.000000
 -0.208333  0.291667  0.000000      6.000000
  0.250000  0.083333  0.000000      6.000000
 -0.250000  0.333333  0.000000      6.000000
  0.291667  0.083333  0.000000      6.000000
 -0.291667  0.375000  0.000000      6.000000
  0.333333  0.083333  0.000000      6.000000
 -0.333333  0.416667  0.000000      6.000000
  0.375000  0.083333  0.000000      6.000000
 -0.375000  0.458333  0.000000      6.000000
  0.416667  0.083333  0.000000      6.000000
 -0.416667  0.500000  0.000000      6.000000
  0.458333  0.083333  0.000000      6.000000
  0.125000  0.125000  0.000000      6.000000
  0.166667  0.125000  0.000000      6.000000
 -0.166667  0.291667  0.000000      6.000000
  0.208333  0.125000  0.000000      6.000000
 -0.208333  0.333333  0.000000      6.000000
  0.250000  0.125000  0.000000      6.000000
 -0.250000  0.375000  0.000000      6.000000
  0.291667  0.125000  0.000000      6.000000
 -0.291667  0.416667  0.000000      6.000000
  0.333333  0.125000  0.000000      6.000000
 -0.333333  0.458333  0.000000      6.000000
  0.375000  0.125000  0.000000      6.000000
 -0.375000  0.500000  0.000000      6.000000
  0.416667  0.125000  0.000000      6.000000
 -0.416667 -0.458333  0.000000      6.000000
  0.166667  0.166667  0.000000      6.000000
  0.208333  0.166667  0.000000      6.000000
 -0.208333  0.375000  0.000000      6.000000
  0.250000  0.166667  0.000000      6.000000
 -0.250000  0.416667  0.000000      6.000000
  0.291667  0.166667  0.000000      6.000000
 -0.291667  0.458333  0.000000      6.000000
  0.333333  0.166667  0.000000      6.000000
 -0.333333  0.500000  0.000000      6.000000
  0.375000  0.166667  0.000000      6.000000
 -0.375000 -0.458333  0.000000      6.000000
  0.416667  0.166667  0.000000      6.000000
  0.208333  0.208333  0.000000      6.000000
  0.250000  0.208333  0.000000      6.000000
 -0.250000  0.458333  0.000000      6.000000
  0.291667  0.208333  0.000000      6.000000
 -0.291667  0.500000  0.000000      6.000000
  0.333333  0.208333  0.000000      6.000000
 -0.333333 -0.458333  0.000000      6.000000
  0.375000  0.208333  0.000000      6.000000
 -0.375000 -0.416667  0.000000      6.000000
  0.250000  0.250000  0.000000      6.000000
  0.291667  0.250000  0.000000      6.000000
 -0.291667 -0.458333  0.000000      6.000000
  0.333333  0.250000  0.000000      6.000000
 -0.333333 -0.416667  0.000000      6.000000
  0.375000  0.250000  0.000000      6.000000
  0.291667  0.291667  0.000000      6.000000
  0.333333  0.291667  0.000000      6.000000
 -0.333333 -0.375000  0.000000      6.000000
  0.333333  0.333333  0.000000      2.000000
 
 Following cartesian coordinates:
            Coordinates               Weight
  0.000000  0.000000  0.000000      1.000000
  0.006383  0.003685  0.000000      6.000000
  0.012766  0.007371  0.000000      6.000000
  0.019150  0.011056  0.000000      6.000000
  0.025533  0.014741  0.000000      6.000000
  0.031916  0.018427  0.000000      6.000000
  0.038299  0.022112  0.000000      6.000000
  0.044683  0.025798  0.000000      6.000000
  0.051066  0.029483  0.000000      6.000000
  0.057449  0.033168  0.000000      6.000000
  0.063832  0.036854  0.000000      6.000000
  0.070216  0.040539  0.000000      6.000000
  0.076599  0.044224  0.000000      3.000000
  0.006383  0.011056  0.000000      6.000000
  0.012766  0.014741  0.000000      6.000000
 -0.012766  0.014741  0.000000      6.000000
  0.019150  0.018427  0.000000      6.000000
 -0.019150  0.018427  0.000000      6.000000
  0.025533  0.022112  0.000000      6.000000
 -0.025533  0.022112  0.000000      6.000000
  0.031916  0.025798  0.000000      6.000000
 -0.031916  0.025798  0.000000      6.000000
  0.038299  0.029483  0.000000      6.000000
 -0.038299  0.029483  0.000000      6.000000
  0.044683  0.033168  0.000000      6.000000
 -0.044683  0.033168  0.000000      6.000000
  0.051066  0.036854  0.000000      6.000000
 -0.051066  0.036854  0.000000      6.000000
  0.057449  0.040539  0.000000      6.000000
 -0.057449  0.040539  0.000000      6.000000
  0.063832  0.044224  0.000000      6.000000
 -0.063832  0.044224  0.000000      6.000000
  0.070216  0.047910  0.000000      6.000000
 -0.070216  0.047910  0.000000      6.000000
  0.012766  0.022112  0.000000      6.000000
  0.019150  0.025798  0.000000      6.000000
 -0.019150  0.025798  0.000000      6.000000
  0.025533  0.029483  0.000000      6.000000
 -0.025533  0.029483  0.000000      6.000000
  0.031916  0.033168  0.000000      6.000000
 -0.031916  0.033168  0.000000      6.000000
  0.038299  0.036854  0.000000      6.000000
 -0.038299  0.036854  0.000000      6.000000
  0.044683  0.040539  0.000000      6.000000
 -0.044683  0.040539  0.000000      6.000000
  0.051066  0.044224  0.000000      6.000000
 -0.051066  0.044224  0.000000      6.000000
  0.057449  0.047910  0.000000      6.000000
 -0.057449  0.047910  0.000000      6.000000
  0.063832  0.051595  0.000000      6.000000
 -0.063832  0.051595  0.000000      6.000000
  0.070216  0.055280  0.000000      6.000000
  0.019150  0.033168  0.000000      6.000000
  0.025533  0.036854  0.000000      6.000000
 -0.025533  0.036854  0.000000      6.000000
  0.031916  0.040539  0.000000      6.000000
 -0.031916  0.040539  0.000000      6.000000
  0.038299  0.044224  0.000000      6.000000
 -0.038299  0.044224  0.000000      6.000000
  0.044683  0.047910  0.000000      6.000000
 -0.044683  0.047910  0.000000      6.000000
  0.051066  0.051595  0.000000      6.000000
 -0.051066  0.051595  0.000000      6.000000
  0.057449  0.055280  0.000000      6.000000
 -0.057449  0.055280  0.000000      6.000000
  0.063832  0.058966  0.000000      6.000000
 -0.063832 -0.117932  0.000000      6.000000
  0.025533  0.044224  0.000000      6.000000
  0.031916  0.047910  0.000000      6.000000
 -0.031916  0.047910  0.000000      6.000000
  0.038299  0.051595  0.000000      6.000000
 -0.038299  0.051595  0.000000      6.000000
  0.044683  0.055280  0.000000      6.000000
 -0.044683  0.055280  0.000000      6.000000
  0.051066  0.058966  0.000000      6.000000
 -0.051066  0.058966  0.000000      6.000000
  0.057449  0.062651  0.000000      6.000000
 -0.057449 -0.114246  0.000000      6.000000
  0.063832  0.066336  0.000000      6.000000
  0.031916  0.055280  0.000000      6.000000
  0.038299  0.058966  0.000000      6.000000
 -0.038299  0.058966  0.000000      6.000000
  0.044683  0.062651  0.000000      6.000000
 -0.044683  0.062651  0.000000      6.000000
  0.051066  0.066336  0.000000      6.000000
 -0.051066 -0.110561  0.000000      6.000000
  0.057449  0.070022  0.000000      6.000000
 -0.057449 -0.106875  0.000000      6.000000
  0.038299  0.066336  0.000000      6.000000
  0.044683  0.070022  0.000000      6.000000
 -0.044683 -0.106875  0.000000      6.000000
  0.051066  0.073707  0.000000      6.000000
 -0.051066 -0.103190  0.000000      6.000000
  0.057449  0.077393  0.000000      6.000000
  0.044683  0.077393  0.000000      6.000000
  0.051066  0.081078  0.000000      6.000000
 -0.051066 -0.095819  0.000000      6.000000
  0.051066  0.088449  0.000000      2.000000
 
 
 Subroutine IBZKPT_HF returns following result:
 ==============================================
 
 Found    576 k-points in 1st BZ
 the following    576 k-points will be used (e.g. in the exchange kernel)
 Following reciprocal coordinates:   # in IRBZ
  0.000000  0.000000  0.000000    0.00173611   1 t-inv F
  0.041667  0.000000  0.000000    0.00173611   2 t-inv F
  0.083333  0.000000  0.000000    0.00173611   3 t-inv F
  0.125000  0.000000  0.000000    0.00173611   4 t-inv F
  0.166667  0.000000  0.000000    0.00173611   5 t-inv F
  0.208333  0.000000  0.000000    0.00173611   6 t-inv F
  0.250000  0.000000  0.000000    0.00173611   7 t-inv F
  0.291667  0.000000  0.000000    0.00173611   8 t-inv F
  0.333333 -0.000000  0.000000    0.00173611   9 t-inv F
  0.375000  0.000000  0.000000    0.00173611  10 t-inv F
  0.416667  0.000000  0.000000    0.00173611  11 t-inv F
  0.458333  0.000000  0.000000    0.00173611  12 t-inv F
  0.500000  0.000000  0.000000    0.00173611  13 t-inv F
  0.041667  0.041667  0.000000    0.00173611  14 t-inv F
  0.083333  0.041667  0.000000    0.00173611  15 t-inv F
 -0.083333  0.125000  0.000000    0.00173611  16 t-inv F
  0.125000  0.041667  0.000000    0.00173611  17 t-inv F
 -0.125000  0.166667  0.000000    0.00173611  18 t-inv F
  0.166667  0.041667  0.000000    0.00173611  19 t-inv F
 -0.166667  0.208333  0.000000    0.00173611  20 t-inv F
  0.208333  0.041667  0.000000    0.00173611  21 t-inv F
 -0.208333  0.250000  0.000000    0.00173611  22 t-inv F
  0.250000  0.041667  0.000000    0.00173611  23 t-inv F
 -0.250000  0.291667  0.000000    0.00173611  24 t-inv F
  0.291667  0.041667  0.000000    0.00173611  25 t-inv F
 -0.291667  0.333333  0.000000    0.00173611  26 t-inv F
  0.333333  0.041667  0.000000    0.00173611  27 t-inv F
 -0.333333  0.375000  0.000000    0.00173611  28 t-inv F
  0.375000  0.041667  0.000000    0.00173611  29 t-inv F
 -0.375000  0.416667  0.000000    0.00173611  30 t-inv F
  0.416667  0.041667  0.000000    0.00173611  31 t-inv F
 -0.416667  0.458333  0.000000    0.00173611  32 t-inv F
  0.458333  0.041667  0.000000    0.00173611  33 t-inv F
 -0.458333  0.500000  0.000000    0.00173611  34 t-inv F
  0.083333  0.083333  0.000000    0.00173611  35 t-inv F
  0.125000  0.083333  0.000000    0.00173611  36 t-inv F
 -0.125000  0.208333  0.000000    0.00173611  37 t-inv F
  0.166667  0.083333  0.000000    0.00173611  38 t-inv F
 -0.166667  0.250000  0.000000    0.00173611  39 t-inv F
  0.208333  0.083333  0.000000    0.00173611  40 t-inv F
 -0.208333  0.291667  0.000000    0.00173611  41 t-inv F
  0.250000  0.083333  0.000000    0.00173611  42 t-inv F
 -0.250000  0.333333  0.000000    0.00173611  43 t-inv F
  0.291667  0.083333  0.000000    0.00173611  44 t-inv F
 -0.291667  0.375000  0.000000    0.00173611  45 t-inv F
  0.333333  0.083333  0.000000    0.00173611  46 t-inv F
 -0.333333  0.416667  0.000000    0.00173611  47 t-inv F
  0.375000  0.083333  0.000000    0.00173611  48 t-inv F
 -0.375000  0.458333  0.000000    0.00173611  49 t-inv F
  0.416667  0.083333  0.000000    0.00173611  50 t-inv F
 -0.416667  0.500000  0.000000    0.00173611  51 t-inv F
  0.458333  0.083333  0.000000    0.00173611  52 t-inv F
  0.125000  0.125000  0.000000    0.00173611  53 t-inv F
  0.166667  0.125000  0.000000    0.00173611  54 t-inv F
 -0.166667  0.291667  0.000000    0.00173611  55 t-inv F
  0.208333  0.125000  0.000000    0.00173611  56 t-inv F
 -0.208333  0.333333  0.000000    0.00173611  57 t-inv F
  0.250000  0.125000  0.000000    0.00173611  58 t-inv F
 -0.250000  0.375000  0.000000    0.00173611  59 t-inv F
  0.291667  0.125000  0.000000    0.00173611  60 t-inv F
 -0.291667  0.416667  0.000000    0.00173611  61 t-inv F
  0.333333  0.125000  0.000000    0.00173611  62 t-inv F
 -0.333333  0.458333  0.000000    0.00173611  63 t-inv F
  0.375000  0.125000  0.000000    0.00173611  64 t-inv F
 -0.375000  0.500000  0.000000    0.00173611  65 t-inv F
  0.416667  0.125000  0.000000    0.00173611  66 t-inv F
 -0.416667 -0.458333  0.000000    0.00173611  67 t-inv F
  0.166667  0.166667  0.000000    0.00173611  68 t-inv F
  0.208333  0.166667  0.000000    0.00173611  69 t-inv F
 -0.208333  0.375000  0.000000    0.00173611  70 t-inv F
  0.250000  0.166667  0.000000    0.00173611  71 t-inv F
 -0.250000  0.416667  0.000000    0.00173611  72 t-inv F
  0.291667  0.166667  0.000000    0.00173611  73 t-inv F
 -0.291667  0.458333  0.000000    0.00173611  74 t-inv F
  0.333333  0.166667  0.000000    0.00173611  75 t-inv F
 -0.333333  0.500000  0.000000    0.00173611  76 t-inv F
  0.375000  0.166667  0.000000    0.00173611  77 t-inv F
 -0.375000 -0.458333  0.000000    0.00173611  78 t-inv F
  0.416667  0.166667  0.000000    0.00173611  79 t-inv F
  0.208333  0.208333  0.000000    0.00173611  80 t-inv F
  0.250000  0.208333  0.000000    0.00173611  81 t-inv F
 -0.250000  0.458333  0.000000    0.00173611  82 t-inv F
  0.291667  0.208333  0.000000    0.00173611  83 t-inv F
 -0.291667  0.500000  0.000000    0.00173611  84 t-inv F
  0.333333  0.208333  0.000000    0.00173611  85 t-inv F
 -0.333333 -0.458333  0.000000    0.00173611  86 t-inv F
  0.375000  0.208333  0.000000    0.00173611  87 t-inv F
 -0.375000 -0.416667  0.000000    0.00173611  88 t-inv F
  0.250000  0.250000  0.000000    0.00173611  89 t-inv F
  0.291667  0.250000  0.000000    0.00173611  90 t-inv F
 -0.291667 -0.458333  0.000000    0.00173611  91 t-inv F
  0.333333  0.250000  0.000000    0.00173611  92 t-inv F
 -0.333333 -0.416667  0.000000    0.00173611  93 t-inv F
  0.375000  0.250000  0.000000    0.00173611  94 t-inv F
  0.291667  0.291667  0.000000    0.00173611  95 t-inv F
  0.333333  0.291667  0.000000    0.00173611  96 t-inv F
 -0.333333 -0.375000  0.000000    0.00173611  97 t-inv F
  0.333333  0.333333  0.000000    0.00173611  98 t-inv F
 -0.041667  0.041667  0.000000    0.00173611   2 t-inv F
  0.000000 -0.041667  0.000000    0.00173611   2 t-inv F
 -0.083333  0.083333  0.000000    0.00173611   3 t-inv F
  0.000000 -0.083333  0.000000    0.00173611   3 t-inv F
 -0.125000  0.125000  0.000000    0.00173611   4 t-inv F
  0.000000 -0.125000  0.000000    0.00173611   4 t-inv F
 -0.166667  0.166667  0.000000    0.00173611   5 t-inv F
  0.000000 -0.166667  0.000000    0.00173611   5 t-inv F
 -0.208333  0.208333  0.000000    0.00173611   6 t-inv F
  0.000000 -0.208333  0.000000    0.00173611   6 t-inv F
 -0.250000  0.250000  0.000000    0.00173611   7 t-inv F
  0.000000 -0.250000  0.000000    0.00173611   7 t-inv F
 -0.291667  0.291667  0.000000    0.00173611   8 t-inv F
  0.000000 -0.291667  0.000000    0.00173611   8 t-inv F
 -0.333333  0.333333  0.000000    0.00173611   9 t-inv F
 -0.000000 -0.333333  0.000000    0.00173611   9 t-inv F
 -0.375000  0.375000  0.000000    0.00173611  10 t-inv F
  0.000000 -0.375000  0.000000    0.00173611  10 t-inv F
 -0.416667  0.416667  0.000000    0.00173611  11 t-inv F
  0.000000 -0.416667  0.000000    0.00173611  11 t-inv F
 -0.458333  0.458333  0.000000    0.00173611  12 t-inv F
  0.000000 -0.458333  0.000000    0.00173611  12 t-inv F
 -0.500000  0.500000  0.000000    0.00173611  13 t-inv F
  0.000000 -0.500000  0.000000    0.00173611  13 t-inv F
 -0.083333  0.041667  0.000000    0.00173611  14 t-inv F
  0.041667 -0.083333  0.000000    0.00173611  14 t-inv F
 -0.125000  0.083333  0.000000    0.00173611  15 t-inv F
  0.041667 -0.125000  0.000000    0.00173611  15 t-inv F
 -0.041667 -0.083333  0.000000    0.00173611  16 t-inv F
  0.125000 -0.041667  0.000000    0.00173611  16 t-inv F
 -0.166667  0.125000  0.000000    0.00173611  17 t-inv F
  0.041667 -0.166667  0.000000    0.00173611  17 t-inv F
 -0.041667 -0.125000  0.000000    0.00173611  18 t-inv F
  0.166667 -0.041667  0.000000    0.00173611  18 t-inv F
 -0.208333  0.166667  0.000000    0.00173611  19 t-inv F
  0.041667 -0.208333  0.000000    0.00173611  19 t-inv F
 -0.041667 -0.166667  0.000000    0.00173611  20 t-inv F
  0.208333 -0.041667  0.000000    0.00173611  20 t-inv F
 -0.250000  0.208333  0.000000    0.00173611  21 t-inv F
  0.041667 -0.250000  0.000000    0.00173611  21 t-inv F
 -0.041667 -0.208333  0.000000    0.00173611  22 t-inv F
  0.250000 -0.041667  0.000000    0.00173611  22 t-inv F
 -0.291667  0.250000  0.000000    0.00173611  23 t-inv F
  0.041667 -0.291667  0.000000    0.00173611  23 t-inv F
 -0.041667 -0.250000  0.000000    0.00173611  24 t-inv F
  0.291667 -0.041667  0.000000    0.00173611  24 t-inv F
 -0.333333  0.291667  0.000000    0.00173611  25 t-inv F
  0.041667 -0.333333  0.000000    0.00173611  25 t-inv F
 -0.041667 -0.291667  0.000000    0.00173611  26 t-inv F
  0.333333 -0.041667  0.000000    0.00173611  26 t-inv F
 -0.375000  0.333333  0.000000    0.00173611  27 t-inv F
  0.041667 -0.375000  0.000000    0.00173611  27 t-inv F
 -0.041667 -0.333333  0.000000    0.00173611  28 t-inv F
  0.375000 -0.041667  0.000000    0.00173611  28 t-inv F
 -0.416667  0.375000  0.000000    0.00173611  29 t-inv F
  0.041667 -0.416667  0.000000    0.00173611  29 t-inv F
 -0.041667 -0.375000  0.000000    0.00173611  30 t-inv F
  0.416667 -0.041667  0.000000    0.00173611  30 t-inv F
 -0.458333  0.416667  0.000000    0.00173611  31 t-inv F
  0.041667 -0.458333  0.000000    0.00173611  31 t-inv F
 -0.041667 -0.416667  0.000000    0.00173611  32 t-inv F
  0.458333 -0.041667  0.000000    0.00173611  32 t-inv F
 -0.500000  0.458333  0.000000    0.00173611  33 t-inv F
  0.041667 -0.500000  0.000000    0.00173611  33 t-inv F
 -0.041667 -0.458333  0.000000    0.00173611  34 t-inv F
  0.500000 -0.041667  0.000000    0.00173611  34 t-inv F
 -0.166667  0.083333  0.000000    0.00173611  35 t-inv F
  0.083333 -0.166667  0.000000    0.00173611  35 t-inv F
 -0.208333  0.125000  0.000000    0.00173611  36 t-inv F
  0.083333 -0.208333  0.000000    0.00173611  36 t-inv F
 -0.083333 -0.125000  0.000000    0.00173611  37 t-inv F
  0.208333 -0.083333  0.000000    0.00173611  37 t-inv F
 -0.250000  0.166667  0.000000    0.00173611  38 t-inv F
  0.083333 -0.250000  0.000000    0.00173611  38 t-inv F
 -0.083333 -0.166667  0.000000    0.00173611  39 t-inv F
  0.250000 -0.083333  0.000000    0.00173611  39 t-inv F
 -0.291667  0.208333  0.000000    0.00173611  40 t-inv F
  0.083333 -0.291667  0.000000    0.00173611  40 t-inv F
 -0.083333 -0.208333  0.000000    0.00173611  41 t-inv F
  0.291667 -0.083333  0.000000    0.00173611  41 t-inv F
 -0.333333  0.250000  0.000000    0.00173611  42 t-inv F
  0.083333 -0.333333  0.000000    0.00173611  42 t-inv F
 -0.083333 -0.250000  0.000000    0.00173611  43 t-inv F
  0.333333 -0.083333  0.000000    0.00173611  43 t-inv F
 -0.375000  0.291667  0.000000    0.00173611  44 t-inv F
  0.083333 -0.375000  0.000000    0.00173611  44 t-inv F
 -0.083333 -0.291667  0.000000    0.00173611  45 t-inv F
  0.375000 -0.083333  0.000000    0.00173611  45 t-inv F
 -0.416667  0.333333  0.000000    0.00173611  46 t-inv F
  0.083333 -0.416667  0.000000    0.00173611  46 t-inv F
 -0.083333 -0.333333  0.000000    0.00173611  47 t-inv F
  0.416667 -0.083333  0.000000    0.00173611  47 t-inv F
 -0.458333  0.375000  0.000000    0.00173611  48 t-inv F
  0.083333 -0.458333  0.000000    0.00173611  48 t-inv F
 -0.083333 -0.375000  0.000000    0.00173611  49 t-inv F
  0.458333 -0.083333  0.000000    0.00173611  49 t-inv F
 -0.500000  0.416667  0.000000    0.00173611  50 t-inv F
  0.083333 -0.500000  0.000000    0.00173611  50 t-inv F
 -0.083333 -0.416667  0.000000    0.00173611  51 t-inv F
  0.500000 -0.083333  0.000000    0.00173611  51 t-inv F
 -0.541667  0.458333  0.000000    0.00173611  52 t-inv F
  0.083333 -0.541667  0.000000    0.00173611  52 t-inv F
 -0.250000  0.125000  0.000000    0.00173611  53 t-inv F
  0.125000 -0.250000  0.000000    0.00173611  53 t-inv F
 -0.291667  0.166667  0.000000    0.00173611  54 t-inv F
  0.125000 -0.291667  0.000000    0.00173611  54 t-inv F
 -0.125000 -0.166667  0.000000    0.00173611  55 t-inv F
  0.291667 -0.125000  0.000000    0.00173611  55 t-inv F
 -0.333333  0.208333  0.000000    0.00173611  56 t-inv F
  0.125000 -0.333333  0.000000    0.00173611  56 t-inv F
 -0.125000 -0.208333  0.000000    0.00173611  57 t-inv F
  0.333333 -0.125000  0.000000    0.00173611  57 t-inv F
 -0.375000  0.250000  0.000000    0.00173611  58 t-inv F
  0.125000 -0.375000  0.000000    0.00173611  58 t-inv F
 -0.125000 -0.250000  0.000000    0.00173611  59 t-inv F
  0.375000 -0.125000  0.000000    0.00173611  59 t-inv F
 -0.416667  0.291667  0.000000    0.00173611  60 t-inv F
  0.125000 -0.416667  0.000000    0.00173611  60 t-inv F
 -0.125000 -0.291667  0.000000    0.00173611  61 t-inv F
  0.416667 -0.125000  0.000000    0.00173611  61 t-inv F
 -0.458333  0.333333  0.000000    0.00173611  62 t-inv F
  0.125000 -0.458333  0.000000    0.00173611  62 t-inv F
 -0.125000 -0.333333  0.000000    0.00173611  63 t-inv F
  0.458333 -0.125000  0.000000    0.00173611  63 t-inv F
 -0.500000  0.375000  0.000000    0.00173611  64 t-inv F
  0.125000 -0.500000  0.000000    0.00173611  64 t-inv F
 -0.125000 -0.375000  0.000000    0.00173611  65 t-inv F
  0.500000 -0.125000  0.000000    0.00173611  65 t-inv F
 -0.541667  0.416667  0.000000    0.00173611  66 t-inv F
  0.125000 -0.541667  0.000000    0.00173611  66 t-inv F
  0.875000 -0.416667  0.000000    0.00173611  67 t-inv F
 -0.458333  0.875000  0.000000    0.00173611  67 t-inv F
 -0.333333  0.166667  0.000000    0.00173611  68 t-inv F
  0.166667 -0.333333  0.000000    0.00173611  68 t-inv F
 -0.375000  0.208333  0.000000    0.00173611  69 t-inv F
  0.166667 -0.375000  0.000000    0.00173611  69 t-inv F
 -0.166667 -0.208333  0.000000    0.00173611  70 t-inv F
  0.375000 -0.166667  0.000000    0.00173611  70 t-inv F
 -0.416667  0.250000  0.000000    0.00173611  71 t-inv F
  0.166667 -0.416667  0.000000    0.00173611  71 t-inv F
 -0.166667 -0.250000  0.000000    0.00173611  72 t-inv F
  0.416667 -0.166667  0.000000    0.00173611  72 t-inv F
 -0.458333  0.291667  0.000000    0.00173611  73 t-inv F
  0.166667 -0.458333  0.000000    0.00173611  73 t-inv F
 -0.166667 -0.291667  0.000000    0.00173611  74 t-inv F
  0.458333 -0.166667  0.000000    0.00173611  74 t-inv F
 -0.500000  0.333333  0.000000    0.00173611  75 t-inv F
  0.166667 -0.500000  0.000000    0.00173611  75 t-inv F
 -0.166667 -0.333333  0.000000    0.00173611  76 t-inv F
  0.500000 -0.166667  0.000000    0.00173611  76 t-inv F
 -0.541667  0.375000  0.000000    0.00173611  77 t-inv F
  0.166667 -0.541667  0.000000    0.00173611  77 t-inv F
  0.833333 -0.375000  0.000000    0.00173611  78 t-inv F
 -0.458333  0.833333  0.000000    0.00173611  78 t-inv F
 -0.583333  0.416667  0.000000    0.00173611  79 t-inv F
  0.166667 -0.583333  0.000000    0.00173611  79 t-inv F
 -0.416667  0.208333  0.000000    0.00173611  80 t-inv F
  0.208333 -0.416667  0.000000    0.00173611  80 t-inv F
 -0.458333  0.250000  0.000000    0.00173611  81 t-inv F
  0.208333 -0.458333  0.000000    0.00173611  81 t-inv F
 -0.208333 -0.250000  0.000000    0.00173611  82 t-inv F
  0.458333 -0.208333  0.000000    0.00173611  82 t-inv F
 -0.500000  0.291667  0.000000    0.00173611  83 t-inv F
  0.208333 -0.500000  0.000000    0.00173611  83 t-inv F
 -0.208333 -0.291667  0.000000    0.00173611  84 t-inv F
  0.500000 -0.208333  0.000000    0.00173611  84 t-inv F
 -0.541667  0.333333  0.000000    0.00173611  85 t-inv F
  0.208333 -0.541667  0.000000    0.00173611  85 t-inv F
  0.791667 -0.333333  0.000000    0.00173611  86 t-inv F
 -0.458333  0.791667  0.000000    0.00173611  86 t-inv F
 -0.583333  0.375000  0.000000    0.00173611  87 t-inv F
  0.208333 -0.583333  0.000000    0.00173611  87 t-inv F
  0.791667 -0.375000  0.000000    0.00173611  88 t-inv F
 -0.416667  0.791667  0.000000    0.00173611  88 t-inv F
 -0.500000  0.250000  0.000000    0.00173611  89 t-inv F
  0.250000 -0.500000  0.000000    0.00173611  89 t-inv F
 -0.541667  0.291667  0.000000    0.00173611  90 t-inv F
  0.250000 -0.541667  0.000000    0.00173611  90 t-inv F
  0.750000 -0.291667  0.000000    0.00173611  91 t-inv F
 -0.458333  0.750000  0.000000    0.00173611  91 t-inv F
 -0.583333  0.333333  0.000000    0.00173611  92 t-inv F
  0.250000 -0.583333  0.000000    0.00173611  92 t-inv F
  0.750000 -0.333333  0.000000    0.00173611  93 t-inv F
 -0.416667  0.750000  0.000000    0.00173611  93 t-inv F
 -0.625000  0.375000  0.000000    0.00173611  94 t-inv F
  0.250000 -0.625000  0.000000    0.00173611  94 t-inv F
 -0.583333  0.291667  0.000000    0.00173611  95 t-inv F
  0.291667 -0.583333  0.000000    0.00173611  95 t-inv F
 -0.625000  0.333333  0.000000    0.00173611  96 t-inv F
  0.291667 -0.625000  0.000000    0.00173611  96 t-inv F
  0.708333 -0.333333  0.000000    0.00173611  97 t-inv F
 -0.375000  0.708333  0.000000    0.00173611  97 t-inv F
 -0.041667 -0.000000  0.000000    0.00173611   2 t-inv T
  0.041667 -0.041667  0.000000    0.00173611   2 t-inv T
 -0.000000  0.041667  0.000000    0.00173611   2 t-inv T
 -0.083333 -0.000000  0.000000    0.00173611   3 t-inv T
  0.083333 -0.083333  0.000000    0.00173611   3 t-inv T
 -0.000000  0.083333  0.000000    0.00173611   3 t-inv T
 -0.125000 -0.000000  0.000000    0.00173611   4 t-inv T
  0.125000 -0.125000  0.000000    0.00173611   4 t-inv T
 -0.000000  0.125000  0.000000    0.00173611   4 t-inv T
 -0.166667 -0.000000  0.000000    0.00173611   5 t-inv T
  0.166667 -0.166667  0.000000    0.00173611   5 t-inv T
 -0.000000  0.166667  0.000000    0.00173611   5 t-inv T
 -0.208333 -0.000000  0.000000    0.00173611   6 t-inv T
  0.208333 -0.208333  0.000000    0.00173611   6 t-inv T
 -0.000000  0.208333  0.000000    0.00173611   6 t-inv T
 -0.250000 -0.000000  0.000000    0.00173611   7 t-inv T
  0.250000 -0.250000  0.000000    0.00173611   7 t-inv T
 -0.000000  0.250000  0.000000    0.00173611   7 t-inv T
 -0.291667 -0.000000  0.000000    0.00173611   8 t-inv T
  0.291667 -0.291667  0.000000    0.00173611   8 t-inv T
 -0.000000  0.291667  0.000000    0.00173611   8 t-inv T
 -0.333333  0.000000  0.000000    0.00173611   9 t-inv T
  0.333333 -0.333333  0.000000    0.00173611   9 t-inv T
  0.000000  0.333333  0.000000    0.00173611   9 t-inv T
 -0.375000 -0.000000  0.000000    0.00173611  10 t-inv T
  0.375000 -0.375000  0.000000    0.00173611  10 t-inv T
 -0.000000  0.375000  0.000000    0.00173611  10 t-inv T
 -0.416667 -0.000000  0.000000    0.00173611  11 t-inv T
  0.416667 -0.416667  0.000000    0.00173611  11 t-inv T
 -0.000000  0.416667  0.000000    0.00173611  11 t-inv T
 -0.458333 -0.000000  0.000000    0.00173611  12 t-inv T
  0.458333 -0.458333  0.000000    0.00173611  12 t-inv T
 -0.000000  0.458333  0.000000    0.00173611  12 t-inv T
 -0.041667 -0.041667  0.000000    0.00173611  14 t-inv T
  0.083333 -0.041667  0.000000    0.00173611  14 t-inv T
 -0.041667  0.083333  0.000000    0.00173611  14 t-inv T
 -0.083333 -0.041667  0.000000    0.00173611  15 t-inv T
  0.125000 -0.083333  0.000000    0.00173611  15 t-inv T
 -0.041667  0.125000  0.000000    0.00173611  15 t-inv T
  0.083333 -0.125000  0.000000    0.00173611  16 t-inv T
  0.041667  0.083333  0.000000    0.00173611  16 t-inv T
 -0.125000  0.041667  0.000000    0.00173611  16 t-inv T
 -0.125000 -0.041667  0.000000    0.00173611  17 t-inv T
  0.166667 -0.125000  0.000000    0.00173611  17 t-inv T
 -0.041667  0.166667  0.000000    0.00173611  17 t-inv T
  0.125000 -0.166667  0.000000    0.00173611  18 t-inv T
  0.041667  0.125000  0.000000    0.00173611  18 t-inv T
 -0.166667  0.041667  0.000000    0.00173611  18 t-inv T
 -0.166667 -0.041667  0.000000    0.00173611  19 t-inv T
  0.208333 -0.166667  0.000000    0.00173611  19 t-inv T
 -0.041667  0.208333  0.000000    0.00173611  19 t-inv T
  0.166667 -0.208333  0.000000    0.00173611  20 t-inv T
  0.041667  0.166667  0.000000    0.00173611  20 t-inv T
 -0.208333  0.041667  0.000000    0.00173611  20 t-inv T
 -0.208333 -0.041667  0.000000    0.00173611  21 t-inv T
  0.250000 -0.208333  0.000000    0.00173611  21 t-inv T
 -0.041667  0.250000  0.000000    0.00173611  21 t-inv T
  0.208333 -0.250000  0.000000    0.00173611  22 t-inv T
  0.041667  0.208333  0.000000    0.00173611  22 t-inv T
 -0.250000  0.041667  0.000000    0.00173611  22 t-inv T
 -0.250000 -0.041667  0.000000    0.00173611  23 t-inv T
  0.291667 -0.250000  0.000000    0.00173611  23 t-inv T
 -0.041667  0.291667  0.000000    0.00173611  23 t-inv T
  0.250000 -0.291667  0.000000    0.00173611  24 t-inv T
  0.041667  0.250000  0.000000    0.00173611  24 t-inv T
 -0.291667  0.041667  0.000000    0.00173611  24 t-inv T
 -0.291667 -0.041667  0.000000    0.00173611  25 t-inv T
  0.333333 -0.291667  0.000000    0.00173611  25 t-inv T
 -0.041667  0.333333  0.000000    0.00173611  25 t-inv T
  0.291667 -0.333333  0.000000    0.00173611  26 t-inv T
  0.041667  0.291667  0.000000    0.00173611  26 t-inv T
 -0.333333  0.041667  0.000000    0.00173611  26 t-inv T
 -0.333333 -0.041667  0.000000    0.00173611  27 t-inv T
  0.375000 -0.333333  0.000000    0.00173611  27 t-inv T
 -0.041667  0.375000  0.000000    0.00173611  27 t-inv T
  0.333333 -0.375000  0.000000    0.00173611  28 t-inv T
  0.041667  0.333333  0.000000    0.00173611  28 t-inv T
 -0.375000  0.041667  0.000000    0.00173611  28 t-inv T
 -0.375000 -0.041667  0.000000    0.00173611  29 t-inv T
  0.416667 -0.375000  0.000000    0.00173611  29 t-inv T
 -0.041667  0.416667  0.000000    0.00173611  29 t-inv T
  0.375000 -0.416667  0.000000    0.00173611  30 t-inv T
  0.041667  0.375000  0.000000    0.00173611  30 t-inv T
 -0.416667  0.041667  0.000000    0.00173611  30 t-inv T
 -0.416667 -0.041667  0.000000    0.00173611  31 t-inv T
  0.458333 -0.416667  0.000000    0.00173611  31 t-inv T
 -0.041667  0.458333  0.000000    0.00173611  31 t-inv T
  0.416667 -0.458333  0.000000    0.00173611  32 t-inv T
  0.041667  0.416667  0.000000    0.00173611  32 t-inv T
 -0.458333  0.041667  0.000000    0.00173611  32 t-inv T
 -0.458333 -0.041667  0.000000    0.00173611  33 t-inv T
  0.500000 -0.458333  0.000000    0.00173611  33 t-inv T
 -0.041667  0.500000  0.000000    0.00173611  33 t-inv T
  0.458333 -0.500000  0.000000    0.00173611  34 t-inv T
  0.041667  0.458333  0.000000    0.00173611  34 t-inv T
 -0.500000  0.041667  0.000000    0.00173611  34 t-inv T
 -0.083333 -0.083333  0.000000    0.00173611  35 t-inv T
  0.166667 -0.083333  0.000000    0.00173611  35 t-inv T
 -0.083333  0.166667  0.000000    0.00173611  35 t-inv T
 -0.125000 -0.083333  0.000000    0.00173611  36 t-inv T
  0.208333 -0.125000  0.000000    0.00173611  36 t-inv T
 -0.083333  0.208333  0.000000    0.00173611  36 t-inv T
  0.125000 -0.208333  0.000000    0.00173611  37 t-inv T
  0.083333  0.125000  0.000000    0.00173611  37 t-inv T
 -0.208333  0.083333  0.000000    0.00173611  37 t-inv T
 -0.166667 -0.083333  0.000000    0.00173611  38 t-inv T
  0.250000 -0.166667  0.000000    0.00173611  38 t-inv T
 -0.083333  0.250000  0.000000    0.00173611  38 t-inv T
  0.166667 -0.250000  0.000000    0.00173611  39 t-inv T
  0.083333  0.166667  0.000000    0.00173611  39 t-inv T
 -0.250000  0.083333  0.000000    0.00173611  39 t-inv T
 -0.208333 -0.083333  0.000000    0.00173611  40 t-inv T
  0.291667 -0.208333  0.000000    0.00173611  40 t-inv T
 -0.083333  0.291667  0.000000    0.00173611  40 t-inv T
  0.208333 -0.291667  0.000000    0.00173611  41 t-inv T
  0.083333  0.208333  0.000000    0.00173611  41 t-inv T
 -0.291667  0.083333  0.000000    0.00173611  41 t-inv T
 -0.250000 -0.083333  0.000000    0.00173611  42 t-inv T
  0.333333 -0.250000  0.000000    0.00173611  42 t-inv T
 -0.083333  0.333333  0.000000    0.00173611  42 t-inv T
  0.250000 -0.333333  0.000000    0.00173611  43 t-inv T
  0.083333  0.250000  0.000000    0.00173611  43 t-inv T
 -0.333333  0.083333  0.000000    0.00173611  43 t-inv T
 -0.291667 -0.083333  0.000000    0.00173611  44 t-inv T
  0.375000 -0.291667  0.000000    0.00173611  44 t-inv T
 -0.083333  0.375000  0.000000    0.00173611  44 t-inv T
  0.291667 -0.375000  0.000000    0.00173611  45 t-inv T
  0.083333  0.291667  0.000000    0.00173611  45 t-inv T
 -0.375000  0.083333  0.000000    0.00173611  45 t-inv T
 -0.333333 -0.083333  0.000000    0.00173611  46 t-inv T
  0.416667 -0.333333  0.000000    0.00173611  46 t-inv T
 -0.083333  0.416667  0.000000    0.00173611  46 t-inv T
  0.333333 -0.416667  0.000000    0.00173611  47 t-inv T
  0.083333  0.333333  0.000000    0.00173611  47 t-inv T
 -0.416667  0.083333  0.000000    0.00173611  47 t-inv T
 -0.375000 -0.083333  0.000000    0.00173611  48 t-inv T
  0.458333 -0.375000  0.000000    0.00173611  48 t-inv T
 -0.083333  0.458333  0.000000    0.00173611  48 t-inv T
  0.375000 -0.458333  0.000000    0.00173611  49 t-inv T
  0.083333  0.375000  0.000000    0.00173611  49 t-inv T
 -0.458333  0.083333  0.000000    0.00173611  49 t-inv T
 -0.416667 -0.083333  0.000000    0.00173611  50 t-inv T
  0.500000 -0.416667  0.000000    0.00173611  50 t-inv T
 -0.083333  0.500000  0.000000    0.00173611  50 t-inv T
  0.416667 -0.500000  0.000000    0.00173611  51 t-inv T
  0.083333  0.416667  0.000000    0.00173611  51 t-inv T
 -0.500000  0.083333  0.000000    0.00173611  51 t-inv T
 -0.458333 -0.083333  0.000000    0.00173611  52 t-inv T
  0.541667 -0.458333  0.000000    0.00173611  52 t-inv T
 -0.083333  0.541667  0.000000    0.00173611  52 t-inv T
 -0.125000 -0.125000  0.000000    0.00173611  53 t-inv T
  0.250000 -0.125000  0.000000    0.00173611  53 t-inv T
 -0.125000  0.250000  0.000000    0.00173611  53 t-inv T
 -0.166667 -0.125000  0.000000    0.00173611  54 t-inv T
  0.291667 -0.166667  0.000000    0.00173611  54 t-inv T
 -0.125000  0.291667  0.000000    0.00173611  54 t-inv T
  0.166667 -0.291667  0.000000    0.00173611  55 t-inv T
  0.125000  0.166667  0.000000    0.00173611  55 t-inv T
 -0.291667  0.125000  0.000000    0.00173611  55 t-inv T
 -0.208333 -0.125000  0.000000    0.00173611  56 t-inv T
  0.333333 -0.208333  0.000000    0.00173611  56 t-inv T
 -0.125000  0.333333  0.000000    0.00173611  56 t-inv T
  0.208333 -0.333333  0.000000    0.00173611  57 t-inv T
  0.125000  0.208333  0.000000    0.00173611  57 t-inv T
 -0.333333  0.125000  0.000000    0.00173611  57 t-inv T
 -0.250000 -0.125000  0.000000    0.00173611  58 t-inv T
  0.375000 -0.250000  0.000000    0.00173611  58 t-inv T
 -0.125000  0.375000  0.000000    0.00173611  58 t-inv T
  0.250000 -0.375000  0.000000    0.00173611  59 t-inv T
  0.125000  0.250000  0.000000    0.00173611  59 t-inv T
 -0.375000  0.125000  0.000000    0.00173611  59 t-inv T
 -0.291667 -0.125000  0.000000    0.00173611  60 t-inv T
  0.416667 -0.291667  0.000000    0.00173611  60 t-inv T
 -0.125000  0.416667  0.000000    0.00173611  60 t-inv T
  0.291667 -0.416667  0.000000    0.00173611  61 t-inv T
  0.125000  0.291667  0.000000    0.00173611  61 t-inv T
 -0.416667  0.125000  0.000000    0.00173611  61 t-inv T
 -0.333333 -0.125000  0.000000    0.00173611  62 t-inv T
  0.458333 -0.333333  0.000000    0.00173611  62 t-inv T
 -0.125000  0.458333  0.000000    0.00173611  62 t-inv T
  0.333333 -0.458333  0.000000    0.00173611  63 t-inv T
  0.125000  0.333333  0.000000    0.00173611  63 t-inv T
 -0.458333  0.125000  0.000000    0.00173611  63 t-inv T
 -0.375000 -0.125000  0.000000    0.00173611  64 t-inv T
  0.500000 -0.375000  0.000000    0.00173611  64 t-inv T
 -0.125000  0.500000  0.000000    0.00173611  64 t-inv T
  0.375000 -0.500000  0.000000    0.00173611  65 t-inv T
  0.125000  0.375000  0.000000    0.00173611  65 t-inv T
 -0.500000  0.125000  0.000000    0.00173611  65 t-inv T
 -0.416667 -0.125000  0.000000    0.00173611  66 t-inv T
  0.541667 -0.416667  0.000000    0.00173611  66 t-inv T
 -0.125000  0.541667  0.000000    0.00173611  66 t-inv T
  0.416667  0.458333  0.000000    0.00173611  67 t-inv T
 -0.875000  0.416667  0.000000    0.00173611  67 t-inv T
  0.458333 -0.875000  0.000000    0.00173611  67 t-inv T
 -0.166667 -0.166667  0.000000    0.00173611  68 t-inv T
  0.333333 -0.166667  0.000000    0.00173611  68 t-inv T
 -0.166667  0.333333  0.000000    0.00173611  68 t-inv T
 -0.208333 -0.166667  0.000000    0.00173611  69 t-inv T
  0.375000 -0.208333  0.000000    0.00173611  69 t-inv T
 -0.166667  0.375000  0.000000    0.00173611  69 t-inv T
  0.208333 -0.375000  0.000000    0.00173611  70 t-inv T
  0.166667  0.208333  0.000000    0.00173611  70 t-inv T
 -0.375000  0.166667  0.000000    0.00173611  70 t-inv T
 -0.250000 -0.166667  0.000000    0.00173611  71 t-inv T
  0.416667 -0.250000  0.000000    0.00173611  71 t-inv T
 -0.166667  0.416667  0.000000    0.00173611  71 t-inv T
  0.250000 -0.416667  0.000000    0.00173611  72 t-inv T
  0.166667  0.250000  0.000000    0.00173611  72 t-inv T
 -0.416667  0.166667  0.000000    0.00173611  72 t-inv T
 -0.291667 -0.166667  0.000000    0.00173611  73 t-inv T
  0.458333 -0.291667  0.000000    0.00173611  73 t-inv T
 -0.166667  0.458333  0.000000    0.00173611  73 t-inv T
  0.291667 -0.458333  0.000000    0.00173611  74 t-inv T
  0.166667  0.291667  0.000000    0.00173611  74 t-inv T
 -0.458333  0.166667  0.000000    0.00173611  74 t-inv T
 -0.333333 -0.166667  0.000000    0.00173611  75 t-inv T
  0.500000 -0.333333  0.000000    0.00173611  75 t-inv T
 -0.166667  0.500000  0.000000    0.00173611  75 t-inv T
  0.333333 -0.500000  0.000000    0.00173611  76 t-inv T
  0.166667  0.333333  0.000000    0.00173611  76 t-inv T
 -0.500000  0.166667  0.000000    0.00173611  76 t-inv T
 -0.375000 -0.166667  0.000000    0.00173611  77 t-inv T
  0.541667 -0.375000  0.000000    0.00173611  77 t-inv T
 -0.166667  0.541667  0.000000    0.00173611  77 t-inv T
  0.375000  0.458333  0.000000    0.00173611  78 t-inv T
 -0.833333  0.375000  0.000000    0.00173611  78 t-inv T
  0.458333 -0.833333  0.000000    0.00173611  78 t-inv T
 -0.416667 -0.166667  0.000000    0.00173611  79 t-inv T
  0.583333 -0.416667  0.000000    0.00173611  79 t-inv T
 -0.166667  0.583333  0.000000    0.00173611  79 t-inv T
 -0.208333 -0.208333  0.000000    0.00173611  80 t-inv T
  0.416667 -0.208333  0.000000    0.00173611  80 t-inv T
 -0.208333  0.416667  0.000000    0.00173611  80 t-inv T
 -0.250000 -0.208333  0.000000    0.00173611  81 t-inv T
  0.458333 -0.250000  0.000000    0.00173611  81 t-inv T
 -0.208333  0.458333  0.000000    0.00173611  81 t-inv T
  0.250000 -0.458333  0.000000    0.00173611  82 t-inv T
  0.208333  0.250000  0.000000    0.00173611  82 t-inv T
 -0.458333  0.208333  0.000000    0.00173611  82 t-inv T
 -0.291667 -0.208333  0.000000    0.00173611  83 t-inv T
  0.500000 -0.291667  0.000000    0.00173611  83 t-inv T
 -0.208333  0.500000  0.000000    0.00173611  83 t-inv T
  0.291667 -0.500000  0.000000    0.00173611  84 t-inv T
  0.208333  0.291667  0.000000    0.00173611  84 t-inv T
 -0.500000  0.208333  0.000000    0.00173611  84 t-inv T
 -0.333333 -0.208333  0.000000    0.00173611  85 t-inv T
  0.541667 -0.333333  0.000000    0.00173611  85 t-inv T
 -0.208333  0.541667  0.000000    0.00173611  85 t-inv T
  0.333333  0.458333  0.000000    0.00173611  86 t-inv T
 -0.791667  0.333333  0.000000    0.00173611  86 t-inv T
  0.458333 -0.791667  0.000000    0.00173611  86 t-inv T
 -0.375000 -0.208333  0.000000    0.00173611  87 t-inv T
  0.583333 -0.375000  0.000000    0.00173611  87 t-inv T
 -0.208333  0.583333  0.000000    0.00173611  87 t-inv T
  0.375000  0.416667  0.000000    0.00173611  88 t-inv T
 -0.791667  0.375000  0.000000    0.00173611  88 t-inv T
  0.416667 -0.791667  0.000000    0.00173611  88 t-inv T
 -0.250000 -0.250000  0.000000    0.00173611  89 t-inv T
  0.500000 -0.250000  0.000000    0.00173611  89 t-inv T
 -0.250000  0.500000  0.000000    0.00173611  89 t-inv T
 -0.291667 -0.250000  0.000000    0.00173611  90 t-inv T
  0.541667 -0.291667  0.000000    0.00173611  90 t-inv T
 -0.250000  0.541667  0.000000    0.00173611  90 t-inv T
  0.291667  0.458333  0.000000    0.00173611  91 t-inv T
 -0.750000  0.291667  0.000000    0.00173611  91 t-inv T
  0.458333 -0.750000  0.000000    0.00173611  91 t-inv T
 -0.333333 -0.250000  0.000000    0.00173611  92 t-inv T
  0.583333 -0.333333  0.000000    0.00173611  92 t-inv T
 -0.250000  0.583333  0.000000    0.00173611  92 t-inv T
  0.333333  0.416667  0.000000    0.00173611  93 t-inv T
 -0.750000  0.333333  0.000000    0.00173611  93 t-inv T
  0.416667 -0.750000  0.000000    0.00173611  93 t-inv T
 -0.375000 -0.250000  0.000000    0.00173611  94 t-inv T
  0.625000 -0.375000  0.000000    0.00173611  94 t-inv T
 -0.250000  0.625000  0.000000    0.00173611  94 t-inv T
 -0.291667 -0.291667  0.000000    0.00173611  95 t-inv T
  0.583333 -0.291667  0.000000    0.00173611  95 t-inv T
 -0.291667  0.583333  0.000000    0.00173611  95 t-inv T
 -0.333333 -0.291667  0.000000    0.00173611  96 t-inv T
  0.625000 -0.333333  0.000000    0.00173611  96 t-inv T
 -0.291667  0.625000  0.000000    0.00173611  96 t-inv T
  0.333333  0.375000  0.000000    0.00173611  97 t-inv T
 -0.708333  0.333333  0.000000    0.00173611  97 t-inv T
  0.375000 -0.708333  0.000000    0.00173611  97 t-inv T
 -0.333333 -0.333333  0.000000    0.00173611  98 t-inv T


--------------------------------------------------------------------------------------------------------




 Dimension of arrays:
   k-points           NKPTS =     98   k-points in BZ     NKDIM =    576   number of bands    NBANDS=    114
   number of dos      NEDOS =   1000   number of ions     NIONS =     28
   non local maximal  LDIM  =      4   non local SUM 2l+1 LMDIM =      8
   total plane-waves  NPLWV = 368640
   max r-space proj   IRMAX =      1   max aug-charges    IRDMAX=   6828
   dimension x,y,z NGX =    48 NGY =   48 NGZ =  160
   dimension x,y,z NGXF=    96 NGYF=   96 NGZF=  320
   support grid    NGXF=    96 NGYF=   96 NGZF=  320
   ions per type =               7   7  14
   NGX,Y,Z   is equivalent  to a cutoff of  12.22, 12.22, 11.32 a.u.
   NGXF,Y,Z  is equivalent  to a cutoff of  24.45, 24.45, 22.64 a.u.

 SYSTEM =  BN/gr                                   
 POSCAR =  21-degree-smallest-config               

 Startparameter for this run:
   NWRITE =      2    write-flag & timer
   PREC   = accura    normal or accurate (medium, high low for compatibility)
   ISTART =      1    job   : 0-new  1-cont  2-samecut
   ICHARG =      0    charge: 1-file 2-atom 10-const
   ISPIN  =      1    spin polarized calculation?
   LNONCOLLINEAR =      F non collinear calculations
   LSORBIT =      F    spin-orbit coupling
   INIWAV =      1    electr: 0-lowe 1-rand  2-diag
   LASPH  =      F    aspherical Exc in radial PAW
 Electronic Relaxation 1
   ENCUT  =  400.0 eV  29.40 Ry    5.42 a.u.  10.64 10.64 38.32*2*pi/ulx,y,z
   ENINI  =  400.0     initial cutoff
   ENAUG  =  644.9 eV  augmentation charge cutoff
   NELM   =    100;   NELMIN=  2; NELMDL=  0     # of ELM steps 
   EDIFF  = 0.1E-07   stopping-criterion for ELM
   LREAL  =      F    real-space projection
   NLSPLINE    = F    spline interpolate recip. space projectors
   LCOMPAT=      F    compatible to vasp.4.4
   GGA_COMPAT  = T    GGA compatible to vasp.4.4-vasp.4.6
   LMAXPAW     = -100 max onsite density
   LMAXMIX     =    2 max onsite mixed and CHGCAR
   VOSKOWN=      0    Vosko Wilk Nusair interpolation
   ROPT   =    0.00000   0.00000   0.00000
 Ionic relaxation
   EDIFFG = 0.1E-06   stopping-criterion for IOM
   NSW    =      0    number of steps for IOM
   NBLOCK =      1;   KBLOCK =      1    inner block; outer block 
   IBRION =     -1    ionic relax: 0-MD 1-quasi-New 2-CG
   NFREE  =      0    steps in history (QN), initial steepest desc. (CG)
   ISIF   =      0    stress and relaxation
   IWAVPR =     10    prediction:  0-non 1-charg 2-wave 3-comb
   ISYM   =      3    0-nonsym 1-usesym 2-fastsym
   LCORR  =      T    Harris-Foulkes like correction to forces

   POTIM  = 0.5000    time-step for ionic-motion
   TEIN   =    0.0    initial temperature
   TEBEG  =    0.0;   TEEND  =   0.0 temperature during run
   SMASS  =  -3.00    Nose mass-parameter (am)
   estimated Nose-frequenzy (Omega)   =  0.10E-29 period in steps = 0.13E+47 mass=  -0.974E-27a.u.
   SCALEE = 1.0000    scale energy and forces
   NPACO  =    256;   APACO  = 10.0  distance and # of slots for P.C.
   PSTRESS=    0.0 pullay stress

  Mass of Ions in am
   POMASS =  14.00 10.81 12.01
  Ionic Valenz
   ZVAL   =   5.00  3.00  4.00
  Atomic Wigner-Seitz radii
   RWIGS  =  -1.00 -1.00 -1.00
  virtual crystal weights 
   VCA    =   1.00  1.00  1.00
   NELECT =     112.0000    total number of electrons
   NUPDOWN=      -1.0000    fix difference up-down

 DOS related values:
   EMIN   =  10.00;   EMAX   =-10.00  energy-range for DOS
   EFERMI =   0.00
   ISMEAR =     0;   SIGMA  =   0.10  broadening in eV -4-tet -1-fermi 0-gaus

 Electronic relaxation 2 (details)
   IALGO  =     58    algorithm
   LDIAG  =      T    sub-space diagonalisation (order eigenvalues)
   LSUBROT=      F    optimize rotation matrix (better conditioning)
   TURBO    =      0    0=normal 1=particle mesh
   IRESTART =      0    0=no restart 2=restart with 2 vectors
   NREBOOT  =      0    no. of reboots
   NMIN     =      0    reboot dimension
   EREF     =   0.00    reference energy to select bands
   IMIX   =      4    mixing-type and parameters
     AMIX     =   0.40;   BMIX     =  1.00
     AMIX_MAG =   1.60;   BMIX_MAG =  1.00
     AMIN     =   0.10
     WC   =   100.;   INIMIX=   1;  MIXPRE=   1;  MAXMIX= -45

 Intra band minimization:
   WEIMIN = 0.0000     energy-eigenvalue tresh-hold
   EBREAK =  0.22E-10  absolut break condition
   DEPER  =   0.30     relativ break condition  

   TIME   =   0.40     timestep for ELM

  volume/ion in A,a.u.               =      30.97       208.99
  Fermi-wavevector in a.u.,A,eV,Ry     =   0.827528  1.563801  9.317300  0.684802
  Thomas-Fermi vector in A             =   1.939747
 
 Write flags
   LWAVE        =      F    write WAVECAR
   LDOWNSAMPLE  =      F    k-point downsampling of WAVECAR
   LCHARG       =      F    write CHGCAR
   LVTOT        =      F    write LOCPOT, total local potential
   LVHAR        =      F    write LOCPOT, Hartree potential only
   LELF         =      F    write electronic localiz. function (ELF)
   LORBIT       =      0    0 simple, 1 ext, 2 COOP (PROOUT), +10 PAW based schemes


 Dipole corrections
   LMONO  =      F    monopole corrections only (constant potential shift)
   LDIPOL =      F    correct potential (dipole corrections)
   IDIPOL =      0    1-x, 2-y, 3-z, 4-all directions 
   EPSILON=  1.0000000 bulk dielectric constant

 Exchange correlation treatment:
   GGA     =    --    GGA type
   LEXCH   =     8    internal setting for exchange type
   LIBXC   =     F    Libxc                    
   VOSKOWN =     0    Vosko Wilk Nusair interpolation
   EXXOEP  =     0    0=HF, 1=EXX-LHF (local Hartree Fock) 2=EXX OEP
   LHFCALC =     T    Hartree Fock is set to
   LSYMGRAD=     F    symmetrize gradient (conserves proper symmetry)
   PRECFOCK=normal    Normal, Fast or Accurate (Low or Medium for compatibility)
   LRHFCALC=     F    long range Hartree Fock
   LRSCOR  =     F    long range correlation only (use DFT for short range part)
   LTHOMAS =     F    Thomas Fermi screening in HF
   LMODELHF=     F    short range full HF, long range fraction AEXX
   LFOCKACE=     T    use Adeptively-Compressed-Exchange operator
   ENCUT4O =  -1.0   cutoff for four orbital integrals eV
   LMAXFOCK=     4    L truncation for augmentation on plane wave grid
   LMAXFOCKAE=   4    L truncation for all-electron charge restoration on plane wave grid
   NMAXFOCKAE=   1    number of basis functions for all-electron charge restoration
   LFOCKAEDFT=     F  apply the AE augmentation even for DFT
   NKREDX  =     1    reduce k-point grid by
   NKREDY  =     1    reduce k-point grid by
   NKREDZ  =     1    reduce k-point grid by
   SHIFTRED=     F    shift reduced grid of Gamma
   HFKIDENT=     F    idential grid for each k-point
   ODDONLY =     F    use only odd q-grid points
   EVENONLY=     F    use only even q-grid points
   HFALPHA =   -1.0000 decay constant for conv. correction
   MCALPHA =    0.0000 extent of test-charge in conv. correction in multipole expansion
   AEXX    =    1.0000 exact exchange contribution
   HFSCREEN=    0.0000 screening length (either q_TF or 0.3 A-1)
   HFSCREENC=   0.0000 screening length for correlation (either q_TF or 0.3 A-1)
   HFRCUT  =    0.0000 spherical cutoff for potential kernel
   ALDAX   =    0.0000 LDA exchange part
   AGGAX   =    0.0000 GGA exchange part
   ALDAC   =    0.0000 LDA correlation
   AGGAC   =    0.0000 GGA correlation
   ENCUTFOCK=  -1.0 apply spherical cutoff to Coloumb kernel
   NBANDSGWLOW=     1    first orbital included in HF term
   NBLOCK_FOCK=     4    blocking factor in FOCK_ACC

 Linear response parameters
   LEPSILON=     F    determine dielectric tensor
   LRPA    =     T    only Hartree local field effects (RPA)
   LNABLA  =     F    use nabla operator in PAW spheres
   LVEL    =     F    velocity operator in full k-point grid
   CSHIFT  =0.1000    complex shift for real part using Kramers Kronig
   OMEGAMAX=   5.0    maximum frequency
   DEG_THRESHOLD= 0.2000000E-02 threshold for treating states as degnerate
   RTIME   =   -0.100 relaxation time in fs
  (WPLASMAI=    0.000 imaginary part of plasma frequency in eV, 0.658/RTIME)
   DFIELD  = 0.0000000 0.0000000 0.0000000 field for delta impulse in time
 
  Optional k-point grid parameters
   LKPOINTS_OPT  =     F    use optional k-point grid
   KPOINTS_OPT_MODE=     1    mode for optional k-point grid
 
 Orbital magnetization related:
   ORBITALMAG=     F  switch on orbital magnetization
   LCHIMAG   =     F  perturbation theory with respect to B field
   DQ        =  0.001000  dq finite difference perturbation B field
   LLRAUG    =     F  two centre corrections for induced B field

 Response functions by sum over occupied states:
   ALGO                = CHI      selected many-body perturbation algorithm
   LFINITE_TEMPERATURE =     F    use finite temperature formalism
   LFXC                =     F    include DFT xc kernel in TD-HF and W
   LADDER              =     F    particle hole ladder diagrams for BSE/TD-HF and W (Nano-quanta)
   LRPAFORCE           =     F    calculate RPA forces
   LHARTREE            =     T    include Hartree terms (bubbles-RPA) in BSE/TD-HF
   IBSE                =     0    BSE modus: 0 exact, 1 time-evolution (store matrix), 10 time-evolution (implicit)
   KPOINT              =    -1   0   0   0    k-point index at which BSE equation is solved (and G at which response is eval.)
   LTRIPLET            =     F    triplet instead of singlet excitation (BSE only)
   LRSRPA              =     F    range separated RPA (total - short) in ACFDT
   LTCTC               =     F    use test-charge test-charge for self-energy (with ALGO=QPBSE)
   LTCTE               =     F    use test-charge test-electron dielectric function
   LTETE               =     F    use test-electron test-electron dielectric function
   LFXCEPS             =     F    determine f_xc=epsilon-1/Xi Sharma and Gross kernel
   LFXHEG              =     F    model exchange using f_x(G,k_F) from free electron gas
   NATURALO            =     2    0 natural orbitals, 1 only virtual, 2 only occupied-virtual rotation
   LHOLEGF             =     F    use holes in self-consistent GW 
   L2ORDER             =     F    2nd order terms only
   LDMP1               =     F    first order term in ACFDT routine is calculated
   LMP2LT              =     F    use LT MP2
   LSMP2LT             =     F    use stochastic LT MP2
   LGWLF               =     F    use W potentials for exchange like diagrams
   ENCUTGW             = 266.7    cutoff for response function in eV
   ENCUTGWSOFT         = 213.3    soft cutoff for Coulomb kernel in GW response function in eV
   ENCUTLF             =  -1.0    cutoff for local field effects
   LESF_SPLINES        =     F    tricubic splines for electronic structure factor S(q+G)
   LMAXMP2             =    -1    maximum L for one center terms
   SCISSOR             =   0.0    scissor correction
   NOMEGA              =   200    number of frequencies
   NOMEGAR             =   200    number of frequencies along real axis
   NBANDSGW            =    -1    number of bands for which selfenergy shift is calculated
   NBANDSGWLOW         =     1    lowest band included in GW (to exclude core correlation)
   NBANDSO             =    -1    number of bands for electron-hole treatment (occupied)
   NBANDSV             =    -1    number of bands for electron-hole treatment (virtual)
   NELM                =     1    number of iterations in solving QP/BSE equation
   NELMHF              =     1    number of iterations in the inner HF iteration
   DIM                 =     3    dimensionality of system (0=0D molecules, 3=3D)
   IEPSILON            =     4    cartesion direction for which dielectric function is calculated (4=all)
   ANTIRES             =     0    antiresonant part (0) no TDA (1) w=0 exact (2) accurate
   OMEGAMAX            =   5.0    maximum frequency
   OMEGAMIN            = -30.0    minimum frequency
   OMEGATL             =-200.0    maximum frequency of tail
   OMEGAGRID           =     0    grid type (0 default)
   CSHIFT              =   0.1    complex shift used in evaluation of response functions
   LSELFENERGY         =     F    calculate selfenergy instead of QP shifts
   LSPECTRAL           =     T    use spectral functions                   
   LSPECTRALGW         =     F    use spectral functions to calculate int dz G(w-z) W(z) (more accurate)
   LSINGLES            =     F    calculate the singles contribution to the correlation energy
   LFERMIGW            =     F    update Fermi-energy in the Greens function

   ODDONLYGW           =     F    avoid all even points for polarizability 
   EVENONLYGW          =     F    avoid all odd  points for polarizability 
   NKREDLFX            =     1    NKREDLFY  =   1   NKREDLFZ  =   1

   TELESCOPE           =     0    use telescope k-point sampling
   NTAUPAR             =    -1    number of TAU groups used in imaginary time calculation
   NOMEGAPAR           =    -1    number of OMEGA groups used in imaginary frequency calculation
   DAMP_NEWTON         =0.8000    damping for Newton step for position update when RPA forces are used



--------------------------------------------------------------------------------------------------------


 Static calculation
 charge density and potential will be updated during run
 non-spin polarized calculation
 Conjugate gradient for all bands (Freysoldt, et al. PRB 79, 241103 (2009))
 preconditioned conjugated gradient                                        
 perform sub-space diagonalisation
    before iterative eigenvector-optimisation
 modified Broyden-mixing scheme, WC =      100.0
 initial mixing is a Kerker type mixing with AMIX =  0.4000 and BMIX =      1.0000
 Hartree-type preconditioning will be used
 using additional bands           58
 reciprocal scheme for non local part
 use partial core corrections
 no Harris-corrections to forces 
 use gradient corrections 
 use of overlap-Matrix (Vanderbilt PP)
 Gauss-broadening in eV      SIGMA  =   0.10


--------------------------------------------------------------------------------------------------------


  energy-cutoff  :      400.00
  volume of cell :      867.15
[...]


NQ=  94    0.3750    0.2500    0.0000, 
       CHI:  cpu time     35.8153: real time     22.0470
   KRAMKRO:  cpu time     30.2129: real time     30.2795
       CHI:  cpu time     34.2497: real time     20.4810
   KRAMKRO:  cpu time     30.3417: real time     30.4090
       CHI:  cpu time     34.2457: real time     20.4731
   KRAMKRO:  cpu time     30.5492: real time     30.6175
       CHI:  cpu time     34.2164: real time     20.4451
   KRAMKRO:  cpu time     30.5652: real time     30.6335
       CHI:  cpu time     34.2340: real time     20.4615
   KRAMKRO:  cpu time     30.7625: real time     30.8312
       CHI:  cpu time     34.2460: real time     20.4734
   KRAMKRO:  cpu time     30.9859: real time     31.0552
       CHI:  cpu time     34.2961: real time     20.5254
   KRAMKRO:  cpu time     31.0685: real time     31.1374
       CHI:  cpu time     34.7493: real time     20.9788
   KRAMKRO:  cpu time     30.8375: real time     30.9056
       CHI:  cpu time     35.0494: real time     21.2796
   KRAMKRO:  cpu time     31.4232: real time     31.4925
       CHI:  cpu time     35.9545: real time     22.1862
   KRAMKRO:  cpu time     31.4563: real time     31.5268
       CHI:  cpu time     36.5146: real time     22.7458
   KRAMKRO:  cpu time     31.8175: real time     31.8886
       CHI:  cpu time     37.8091: real time     24.0438
   KRAMKRO:  cpu time     32.3298: real time     32.4020
       CHI:  cpu time     38.3275: real time     24.5638
   KRAMKRO:  cpu time     33.7404: real time     33.8147
       CHI:  cpu time     41.3676: real time     27.6109
   KRAMKRO:  cpu time     32.4394: real time     32.5120
       CHI:  cpu time     43.5850: real time     29.8303
   KRAMKRO:  cpu time     33.4458: real time     33.5207
       CHI:  cpu time     48.3406: real time     34.5979
   KRAMKRO:  cpu time     35.0012: real time     35.0791
       CHI:  cpu time     54.9156: real time     41.1857
   KRAMKRO:  cpu time     33.1501: real time     33.2241
       CHI:  cpu time     61.5714: real time     47.8540
   KRAMKRO:  cpu time     32.8537: real time     32.9272
       CHI:  cpu time     67.6690: real time     53.9648
   KRAMKRO:  cpu time     34.8519: real time     34.9295
       CHI:  cpu time     77.5338: real time     63.8510
   KRAMKRO:  cpu time     34.9646: real time     35.0427
       CHI:  cpu time     84.4276: real time     70.7600
   KRAMKRO:  cpu time     34.3178: real time     34.3933
       CHI:  cpu time     94.1183: real time     80.4739
   KRAMKRO:  cpu time     37.2448: real time     37.3274
       CHI:  cpu time    129.7322: real time    116.1713
   KRAMKRO:  cpu time     36.1403: real time     36.2199
       CHI:  cpu time    135.7917: real time    122.2422
   KRAMKRO:  cpu time     37.6548: real time     37.7385
       CHI:  cpu time     38.3023: real time     24.5401
   KRAMKRO:  cpu time     29.9063: real time     29.9735
    LFIELD:  cpu time      0.0001: real time      0.0001
  XI_LOCAL:  cpu time    134.1620: real time    134.4447
  XI_RED_T:  cpu time      1.4584: real time      1.4615
   XI_TO_W:  cpu time      0.1347: real time      0.1350
   CHI_SYM:  cpu time      3.9391: real time      3.9476
        GW:  cpu time   2295.1371: real time   1953.9763
 
 performed     351936000 updates of chi_q(r,r)
 total number of BLAS operations207145194.37 Gflops


--------------------------------------------------------------------------------------------------------


NQ=  95    0.2917    0.2917    0.0000, 
       CHI:  cpu time     35.8389: real time     22.0725
   KRAMKRO:  cpu time     30.3338: real time     30.4007
       CHI:  cpu time     34.3406: real time     20.5723
   KRAMKRO:  cpu time     30.1075: real time     30.1745
       CHI:  cpu time     34.1920: real time     20.4224
   KRAMKRO:  cpu time     30.8412: real time     30.9101
       CHI:  cpu time     34.2256: real time     20.4555
   KRAMKRO:  cpu time     30.2247: real time     30.2924
       CHI:  cpu time     34.2000: real time     20.4300
   KRAMKRO:  cpu time     30.8666: real time     30.9356
       CHI:  cpu time     34.2278: real time     20.4594
   KRAMKRO:  cpu time     30.6603: real time     30.7289
       CHI:  cpu time     34.2274: real time     20.4575
   KRAMKRO:  cpu time     31.1792: real time     31.2484
       CHI:  cpu time     34.2838: real time     20.5164
   KRAMKRO:  cpu time     31.4757: real time     31.5450
       CHI:  cpu time     34.9857: real time     21.2161
   KRAMKRO:  cpu time     31.5416: real time     31.6110
       CHI:  cpu time     35.6720: real time     21.9066
   KRAMKRO:  cpu time     31.6053: real time     31.6760
       CHI:  cpu time     36.8773: real time     23.1115
   KRAMKRO:  cpu time     31.9521: real time     32.0237
       CHI:  cpu time     37.6949: real time     23.9309
   KRAMKRO:  cpu time     31.8782: real time     31.9495
       CHI:  cpu time     39.0168: real time     25.2553
   KRAMKRO:  cpu time     32.7875: real time     32.8596
       CHI:  cpu time     40.8219: real time     27.0654
   KRAMKRO:  cpu time     32.4381: real time     32.5105
       CHI:  cpu time     43.2484: real time     29.4949
   KRAMKRO:  cpu time     33.7018: real time     33.7770
       CHI:  cpu time     48.8592: real time     35.1188
   KRAMKRO:  cpu time     33.4998: real time     33.5741
       CHI:  cpu time     53.9602: real time     40.2295
   KRAMKRO:  cpu time     33.3804: real time     33.4550
       CHI:  cpu time     61.9818: real time     48.2672
   KRAMKRO:  cpu time     31.7789: real time     31.8498
       CHI:  cpu time     68.4104: real time     54.7085
   KRAMKRO:  cpu time     33.9414: real time     34.0166
       CHI:  cpu time     77.4199: real time     63.7389
   KRAMKRO:  cpu time     35.3313: real time     35.4100
       CHI:  cpu time     85.1943: real time     71.5309
   KRAMKRO:  cpu time     33.9564: real time     34.0311
       CHI:  cpu time     96.2921: real time     82.6541
   KRAMKRO:  cpu time     36.8938: real time     36.9761
       CHI:  cpu time    132.2641: real time    118.7081
   KRAMKRO:  cpu time     34.7874: real time     34.8648
       CHI:  cpu time    135.0493: real time    121.5009
   KRAMKRO:  cpu time     39.3772: real time     39.4640
       CHI:  cpu time     38.4143: real time     24.6535
   KRAMKRO:  cpu time     30.1758: real time     30.2433
    LFIELD:  cpu time      0.0001: real time      0.0001
  XI_LOCAL:  cpu time    134.6483: real time    134.9325
  XI_RED_T:  cpu time      1.4633: real time      1.4664
   XI_TO_W:  cpu time      0.1351: real time      0.1354
   CHI_SYM:  cpu time      4.0190: real time      4.0276
        GW:  cpu time   2296.9995: real time   1955.8864
 
 performed     355680000 updates of chi_q(r,r)
 total number of BLAS operations209342968.68 Gflops


--------------------------------------------------------------------------------------------------------


NQ=  96    0.3333    0.2917    0.0000, 
       CHI:  cpu time     35.8418: real time     22.0723
   KRAMKRO:  cpu time     30.1323: real time     30.1988
       CHI:  cpu time     34.2070: real time     20.4362
   KRAMKRO:  cpu time     30.6562: real time     30.7253
       CHI:  cpu time     34.2248: real time     20.4536
   KRAMKRO:  cpu time     30.5678: real time     30.6361
       CHI:  cpu time     34.2243: real time     20.4503
   KRAMKRO:  cpu time     30.4614: real time     30.5296
       CHI:  cpu time     34.2499: real time     20.4772
   KRAMKRO:  cpu time     30.7851: real time     30.8539
       CHI:  cpu time     34.2672: real time     20.4934
   KRAMKRO:  cpu time     30.8656: real time     30.9345
       CHI:  cpu time     34.3056: real time     20.5337
   KRAMKRO:  cpu time     30.9088: real time     30.9777
       CHI:  cpu time     34.4673: real time     20.6946
   KRAMKRO:  cpu time     31.2597: real time     31.3286
       CHI:  cpu time     35.3116: real time     21.5415
   KRAMKRO:  cpu time     31.4638: real time     31.5332
       CHI:  cpu time     36.2545: real time     22.4868
   KRAMKRO:  cpu time     31.7699: real time     31.8408
       CHI:  cpu time     37.1780: real time     23.4107
   KRAMKRO:  cpu time     31.3173: real time     31.3874
       CHI:  cpu time     36.5356: real time     22.7668
   KRAMKRO:  cpu time     33.0215: real time     33.0954
       CHI:  cpu time     39.2208: real time     25.4573
   KRAMKRO:  cpu time     32.7270: real time     32.7990
       CHI:  cpu time     40.7955: real time     27.0372
   KRAMKRO:  cpu time     32.0351: real time     32.1070
       CHI:  cpu time     43.8378: real time     30.0832
   KRAMKRO:  cpu time     33.2886: real time     33.3629
       CHI:  cpu time     49.1699: real time     35.4284
   KRAMKRO:  cpu time     34.1167: real time     34.1936
       CHI:  cpu time     53.7634: real time     40.0287
   KRAMKRO:  cpu time     34.5846: real time     34.6618
       CHI:  cpu time     60.7457: real time     47.0266
   KRAMKRO:  cpu time     34.1923: real time     34.2686
       CHI:  cpu time     70.5332: real time     56.8345
   KRAMKRO:  cpu time     30.9708: real time     31.0390
       CHI:  cpu time     78.4458: real time     64.7657
   KRAMKRO:  cpu time     35.8238: real time     35.9035
       CHI:  cpu time     85.0599: real time     71.3936
   KRAMKRO:  cpu time     33.4449: real time     33.5184
       CHI:  cpu time     99.1591: real time     85.5238
   KRAMKRO:  cpu time     31.5772: real time     31.6476
       CHI:  cpu time    130.1396: real time    116.5756
   KRAMKRO:  cpu time     35.6069: real time     35.6865
       CHI:  cpu time    135.0434: real time    121.4926
   KRAMKRO:  cpu time     36.5800: real time     36.6606
       CHI:  cpu time     37.9522: real time     24.1889
   KRAMKRO:  cpu time     31.2350: real time     31.3050
    LFIELD:  cpu time      0.0001: real time      0.0000
  XI_LOCAL:  cpu time    133.7985: real time    134.0798
  XI_RED_T:  cpu time      1.4563: real time      1.4594
   XI_TO_W:  cpu time      0.1336: real time      0.1339
   CHI_SYM:  cpu time      3.9115: real time      3.9199
        GW:  cpu time   2293.9453: real time   1952.7610
 
 performed     359424000 updates of chi_q(r,r)
 total number of BLAS operations211532022.58 Gflops


--------------------------------------------------------------------------------------------------------


NQ=  97   -0.3333   -0.3750    0.0000, 
       CHI:  cpu time     35.8583: real time     22.0884
   KRAMKRO:  cpu time     30.1039: real time     30.1702
       CHI:  cpu time     34.3559: real time     20.5851
   KRAMKRO:  cpu time     30.1223: real time     30.1901
       CHI:  cpu time     34.2370: real time     20.4633
   KRAMKRO:  cpu time     30.5405: real time     30.6088
       CHI:  cpu time     34.2519: real time     20.4784
   KRAMKRO:  cpu time     30.4777: real time     30.5459
       CHI:  cpu time     34.2578: real time     20.4840
   KRAMKRO:  cpu time     30.8397: real time     30.9086
       CHI:  cpu time     34.2584: real time     20.4846
   KRAMKRO:  cpu time     31.1676: real time     31.2372
       CHI:  cpu time     34.3186: real time     20.5452
   KRAMKRO:  cpu time     31.0766: real time     31.1458
       CHI:  cpu time     34.3821: real time     20.6103
   KRAMKRO:  cpu time     31.4539: real time     31.5230
       CHI:  cpu time     35.8606: real time     22.0915
   KRAMKRO:  cpu time     31.2840: real time     31.3531
       CHI:  cpu time     35.7865: real time     22.0207
   KRAMKRO:  cpu time     31.9675: real time     32.0389
       CHI:  cpu time     36.7872: real time     23.0206
   KRAMKRO:  cpu time     32.0166: real time     32.0880
       CHI:  cpu time     36.7980: real time     23.0289
   KRAMKRO:  cpu time     33.1458: real time     33.2199
       CHI:  cpu time     39.0858: real time     25.3225
   KRAMKRO:  cpu time     32.4568: real time     32.5282
       CHI:  cpu time     40.7149: real time     26.9556
   KRAMKRO:  cpu time     32.2571: real time     32.3291
       CHI:  cpu time     44.6802: real time     30.9272
   KRAMKRO:  cpu time     32.4613: real time     32.5340
       CHI:  cpu time     49.3668: real time     35.6236
   KRAMKRO:  cpu time     34.0578: real time     34.1338
       CHI:  cpu time     55.2506: real time     41.5200
   KRAMKRO:  cpu time     32.3213: real time     32.3926
       CHI:  cpu time     60.8055: real time     47.0865
   KRAMKRO:  cpu time     34.8361: real time     34.9139
       CHI:  cpu time     69.1194: real time     55.4183
   KRAMKRO:  cpu time     32.2009: real time     32.2715
       CHI:  cpu time     77.6337: real time     63.9496
   KRAMKRO:  cpu time     35.2692: real time     35.3476
       CHI:  cpu time     85.1452: real time     71.4790
   KRAMKRO:  cpu time     35.8107: real time     35.8897
       CHI:  cpu time     94.2140: real time     80.5676
   KRAMKRO:  cpu time     37.9621: real time     38.0467
       CHI:  cpu time    129.1313: real time    115.5649
   KRAMKRO:  cpu time     37.1222: real time     37.2049
       CHI:  cpu time    132.3680: real time    118.8084
   KRAMKRO:  cpu time     40.0221: real time     40.1112
       CHI:  cpu time     38.8773: real time     25.1139
   KRAMKRO:  cpu time     29.0825: real time     29.1476
    LFIELD:  cpu time      0.0001: real time      0.0001
  XI_LOCAL:  cpu time    133.7859: real time    134.0679
  XI_RED_T:  cpu time      1.4562: real time      1.4593
   XI_TO_W:  cpu time      0.1344: real time      0.1347
   CHI_SYM:  cpu time      3.9091: real time      3.9175
        GW:  cpu time   2297.2059: real time   1956.0175
 
 performed     363168000 updates of chi_q(r,r)
 total number of BLAS operations213721076.48 Gflops


--------------------------------------------------------------------------------------------------------


NQ=  98    0.3333    0.3333    0.0000, 
       CHI:  cpu time     35.8304: real time     22.0619
   KRAMKRO:  cpu time     30.2741: real time     30.3409
       CHI:  cpu time     34.2444: real time     20.4743
   KRAMKRO:  cpu time     30.5821: real time     30.6500
       CHI:  cpu time     34.2246: real time     20.4537
   KRAMKRO:  cpu time     30.7861: real time     30.8549
       CHI:  cpu time     34.2402: real time     20.4683
   KRAMKRO:  cpu time     30.5399: real time     30.6081
       CHI:  cpu time     34.2408: real time     20.4688
   KRAMKRO:  cpu time     30.9817: real time     31.0509
       CHI:  cpu time     34.2585: real time     20.4852
   KRAMKRO:  cpu time     30.9214: real time     30.9905
       CHI:  cpu time     34.2911: real time     20.5167
   KRAMKRO:  cpu time     31.3572: real time     31.4274
       CHI:  cpu time     34.3125: real time     20.5401
   KRAMKRO:  cpu time     31.4567: real time     31.5259
       CHI:  cpu time     35.0344: real time     21.2640
   KRAMKRO:  cpu time     32.0755: real time     32.1460
       CHI:  cpu time     35.4299: real time     21.6609
   KRAMKRO:  cpu time     32.4218: real time     32.4945
       CHI:  cpu time     37.1447: real time     23.3770
   KRAMKRO:  cpu time     31.8366: real time     31.9077
       CHI:  cpu time     37.4107: real time     23.6438
   KRAMKRO:  cpu time     33.2177: real time     33.2919
       CHI:  cpu time     39.6419: real time     25.8796
   KRAMKRO:  cpu time     31.3932: real time     31.4622
       CHI:  cpu time     41.0648: real time     27.3062
   KRAMKRO:  cpu time     33.1983: real time     33.2724
       CHI:  cpu time     45.8275: real time     32.0778
   KRAMKRO:  cpu time     31.2854: real time     31.3553
       CHI:  cpu time     49.2525: real time     35.5100
   KRAMKRO:  cpu time     34.1769: real time     34.2527
       CHI:  cpu time     54.6889: real time     40.9569
   KRAMKRO:  cpu time     32.8743: real time     32.9477
       CHI:  cpu time     61.9131: real time     48.1966
   KRAMKRO:  cpu time     33.2443: real time     33.3186
       CHI:  cpu time     70.5889: real time     56.8891
   KRAMKRO:  cpu time     33.3101: real time     33.3834
       CHI:  cpu time     77.5780: real time     63.8943
   KRAMKRO:  cpu time     36.9974: real time     37.0799
       CHI:  cpu time     84.6452: real time     70.9779
   KRAMKRO:  cpu time     36.9683: real time     37.0502
       CHI:  cpu time     97.0576: real time     83.4189
   KRAMKRO:  cpu time     35.3602: real time     35.4392
       CHI:  cpu time    131.9393: real time    118.3808
   KRAMKRO:  cpu time     35.3944: real time     35.4730
       CHI:  cpu time    136.9513: real time    123.4031
   KRAMKRO:  cpu time     36.2835: real time     36.3635
       CHI:  cpu time     38.3773: real time     24.6150
   KRAMKRO:  cpu time     29.8304: real time     29.8972
    LFIELD:  cpu time      0.0001: real time      0.0001
  XI_LOCAL:  cpu time    134.8970: real time    135.1819
  XI_RED_T:  cpu time      1.4730: real time      1.4761
   XI_TO_W:  cpu time      0.1354: real time      0.1357
   CHI_SYM:  cpu time      9.0145: real time      9.0338
        GW:  cpu time   2312.7948: real time   1971.6518
 
 performed     366912000 updates of chi_q(r,r)
 total number of BLAS operations215921922.83 Gflops
    GWLOOP:  cpu time 255251.6723: real time 268322.8546
  LATTYP: Found a hexagonal cell.
 ALAT       =     6.5275182621
 C/A-ratio  =     3.6001431258
  
  Lattice vectors:
  
 A1 = (   6.5275182621,   0.0000000000,   0.0000000000)
 A2 = (  -3.2637595517,   5.6529973650,   0.0000000000)
 A3 = (   0.0000000000,   0.0000000000,  23.5000000000)


Analysis of symmetry for initial positions (statically):
=====================================================================
 Subroutine PRICEL returns:
 Original cell was already a primitive cell.
 

 Routine SETGRP: Setting up the symmetry group for a 
 hexagonal supercell.


 Subroutine GETGRP returns: Found  3 space group operations
 (whereof  3 operations were pure point group operations)
 out of a pool of 24 trial point group operations.


The static configuration has the point symmetry C_3 .


Analysis of symmetry for dynamics (positions and initial velocities):
=====================================================================
 Subroutine PRICEL returns:
 Original cell was already a primitive cell.
 

 Routine SETGRP: Setting up the symmetry group for a 
 hexagonal supercell.


 Subroutine GETGRP returns: Found  3 space group operations
 (whereof  3 operations were pure point group operations)
 out of a pool of 24 trial point group operations.


The dynamic configuration has the point symmetry C_3 .


 Subroutine INISYM returns: Found  3 space group operations
 (whereof  3 operations are pure point group operations),
 and found     1 'primitive' translations

    --------------------------------------------
   GWTOTAL:  cpu time 255255.7766: real time 268326.0732
    4ORBIT:  cpu time      0.0000: real time      0.0000

 total amount of memory used by VASP MPI-rank0   431393. kBytes
=======================================================================

   base      :      30000. kBytes
   nonl-proj :     305257. kBytes
   fftplans  :       2546. kBytes
   grid      :      16757. kBytes
   one-center:         86. kBytes
   HF        :         27. kBytes
   nonlr-proj:       1108. kBytes
   wavefun   :      75612. kBytes
   response  :          0. kBytes
 
  
  
 General timing and accounting informations for this job:
 ========================================================
  
                  Total CPU time used (sec):   255281.531
                            User time (sec):   252798.549
                          System time (sec):     2482.982
                         Elapsed time (sec):   268350.779
  
                   Maximum memory used (kb):    20255284.
                   Average memory used (kb):          N/A
  
                          Minor page faults:    519537408
                          Major page faults:            0
                 Voluntary context switches:      1454184
